
    -----------------------------------------------------------------------
          Psi4: An Open-Source Ab Initio Electronic Structure Package
                               Psi4 1.9.1 release

                         Git: Rev {} zzzzzzz 


    D. G. A. Smith, L. A. Burns, A. C. Simmonett, R. M. Parrish,
    M. C. Schieber, R. Galvelis, P. Kraus, H. Kruse, R. Di Remigio,
    A. Alenaizan, A. M. James, S. Lehtola, J. P. Misiewicz, M. Scheurer,
    R. A. Shaw, J. B. Schriber, Y. Xie, Z. L. Glick, D. A. Sirianni,
    J. S. O'Brien, J. M. Waldrop, A. Kumar, E. G. Hohenstein,
    B. P. Pritchard, B. R. Brooks, H. F. Schaefer III, A. Yu. Sokolov,
    K. Patkowski, A. E. DePrince III, U. Bozkaya, R. A. King,
    F. A. Evangelista, J. M. Turney, T. D. Crawford, C. D. Sherrill,
    J. Chem. Phys. 152(18) 184108 (2020). https://doi.org/10.1063/5.0006002

                            Additional Code Authors
    E. T. Seidl, C. L. Janssen, E. F. Valeev, M. L. Leininger,
    J. F. Gonthier, R. M. Richard, H. R. McAlexander, M. Saitow, X. Wang,
    P. Verma, M. H. Lechner, A. Jiang, S. Behnle, A. G. Heide,
    M. F. Herbst, and D. L. Poole

             Previous Authors, Complete List of Code Contributors,
                       and Citations for Specific Modules
    https://github.com/psi4/psi4/blob/master/codemeta.json
    https://github.com/psi4/psi4/graphs/contributors
    http://psicode.org/psi4manual/master/introduction.html#citing-psifour

    -----------------------------------------------------------------------


    Psi4 started on: Tuesday, 18 November 2025 11:21AM

    Process ID: 22972
    Host:       Mac-mini.local
    PSIDATADIR: /Users/basirbinrafiq/miniforge3/envs/p4fix/share/psi4
    Memory:     500.0 MiB
    Threads:    1
    
  ==> Input File <==

--------------------------------------------------------------------------
molecule argon_dimer {
     0 1
     Ar  0.000000   0.000000   1.880079
     --
     0 1
     Ar  0.000000   0.000000  -1.880079

     units angstrom
     no_reorient
     symmetry c1
}

set {
    basis                  aug-cc-pVQZ
    sapt_dft_grac_shift_a  0.13879858
    sapt_dft_grac_shift_b  0.13879858
}

energy('sapt(dft)')
--------------------------------------------------------------------------

Scratch directory: /tmp/

*** tstart() called on Mac-mini.local
*** at Tue Nov 18 11:21:49 2025


         ---------------------------------------------------------
                            SAPT(DFT) Procedure                    

                           by Daniel G. A. Smith                   
         ---------------------------------------------------------

Warning! The default value of SAPT_DFT_EXCH_DISP_SCALE_SCHEME has changed from DISP to FIXED. Please be careful comparing results with earlier versions. 

  ==> Algorithm <==

   SAPT DFT Functional             PBE0
   Monomer A GRAC Shift        0.138799
   Monomer B GRAC Shift        0.138799
   Delta HF                        True
   JK Algorithm                      DF

   Required computations:
     HF  (Dimer)
     HF  (Monomer A)
     HF  (Monomer B)
     DFT (Monomer A)
     DFT (Monomer B)

   => Libint2 <=

    Primary   basis highest AM E, G, H:  6, 6, 3
    Auxiliary basis highest AM E, G, H:  7, 7, 4
    Onebody   basis highest AM E, G, H:  -, -, -
    Solid Harmonics ordering:            Gaussian

*** tstart() called on Mac-mini.local
*** at Tue Nov 18 11:21:49 2025

   => Loading Basis Set <=

    Name: AUG-CC-PVQZ
    Role: ORBITAL
    Keyword: BASIS
    atoms 1-2 entry AR         line  1318 file /Users/basirbinrafiq/miniforge3/envs/p4fix/share/psi4/basis/aug-cc-pvqz.gbs 


         ---------------------------------------------------------
                         SAPT(DFT): delta HF Dimer                 
         ---------------------------------------------------------
                                   SCF
               by Justin Turney, Rob Parrish, Andy Simmonett
                          and Daniel G. A. Smith
                              RHF Reference
                        1 Threads,    500 MiB Core
         ---------------------------------------------------------

  ==> Geometry <==

    Molecular point group: c1
    Full point group: D_inf_h

    Geometry (in Angstrom), charge = 0, multiplicity = 1:

       Center              X                  Y                   Z               Mass       
    ------------   -----------------  -----------------  -----------------  -----------------
         AR           0.000000000000     0.000000000000     1.880079000000    39.962383123700
         AR           0.000000000000     0.000000000000    -1.880079000000    39.962383123700

  Running in c1 symmetry.

  Rotational constants: A = ************  B =      0.05967  C =      0.05967 [cm^-1]
  Rotational constants: A = ************  B =   1788.88996  C =   1788.88996 [MHz]
  Nuclear repulsion =   45.597396773507917

  Charge       = 0
  Multiplicity = 1
  Electrons    = 36
  Nalpha       = 18
  Nbeta        = 18

  ==> Algorithm <==

  SCF Algorithm Type is DF.
  DIIS enabled.
  MOM disabled.
  Fractional occupation disabled.
  Guess Type is SAD.
  Energy threshold   = 1.00e-08
  Density threshold  = 1.00e-08
  Integral threshold = 1.00e-12

  ==> Primary Basis <==

  Basis Set: AUG-CC-PVQZ
    Blend: AUG-CC-PVQZ
    Number of shells: 44
    Number of basis functions: 168
    Number of Cartesian functions: 218
    Spherical Harmonics?: true
    Max angular momentum: 4

   => Loading Basis Set <=

    Name: (AUG-CC-PVQZ AUX)
    Role: JKFIT
    Keyword: DF_BASIS_SCF
    atoms 1-2 entry AR         line   998 file /Users/basirbinrafiq/miniforge3/envs/p4fix/share/psi4/basis/aug-cc-pvqz-jkfit.gbs 

  ==> Integral Setup <==

  ==> DiskDFJK: Density-Fitted J/K Matrices <==

    J tasked:                  Yes
    K tasked:                  Yes
    wK tasked:                  No
    OpenMP threads:              1
    Integrals threads:           1
    Memory [MiB]:              375
    Algorithm:                Core
    Integral Cache:           SAVE
    Schwarz Cutoff:          1E-12
    Fitting Condition:       1E-10

   => Auxiliary Basis Set <=

  Basis Set: (AUG-CC-PVQZ AUX)
    Blend: AUG-CC-PVQZ-JKFIT
    Number of shells: 92
    Number of basis functions: 368
    Number of Cartesian functions: 494
    Spherical Harmonics?: true
    Max angular momentum: 5

  Minimum eigenvalue in the overlap matrix is 5.6311832539E-04.
  Reciprocal condition number of the overlap matrix is 1.3852340640E-04.
    Using symmetric orthogonalization.

  ==> Pre-Iterations <==

  SCF Guess: Superposition of Atomic Densities via on-the-fly atomic UHF (no occupation information).

   -------------------------
    Irrep   Nso     Nmo    
   -------------------------
     A        168     168 
   -------------------------
    Total     168     168
   -------------------------

  ==> Iterations <==

                           Total Energy        Delta E     RMS |[F,P]|

   @DF-RHF iter SAD: -1053.60248858248860   -1.05360e+03   0.00000e+00 
   @DF-RHF iter   1: -1053.63184754204144   -2.93590e-02   5.79581e-04 DIIS/ADIIS
   @DF-RHF iter   2: -1053.63308890674489   -1.24136e-03   1.40220e-04 DIIS/ADIIS
   @DF-RHF iter   3: -1053.63319529183741   -1.06385e-04   4.68518e-06 DIIS
   @DF-RHF iter   4: -1053.63319546577782   -1.73940e-07   3.03686e-07 DIIS
   @DF-RHF iter   5: -1053.63319546832372   -2.54590e-09   7.14457e-08 DIIS
   @DF-RHF iter   6: -1053.63319546851699   -1.93268e-10   1.05323e-08 DIIS
   @DF-RHF iter   7: -1053.63319546851949   -2.50111e-12   3.32937e-09 DIIS
  Energy and wave function converged.


  ==> Post-Iterations <==

    Orbital Energies [Eh]
    ---------------------

    Doubly Occupied:                                                      

       1A   -118.610141     2A   -118.610141     3A    -12.321970  
       4A    -12.321969     5A     -9.571256     6A     -9.571256  
       7A     -9.571256     8A     -9.571256     9A     -9.571254  
      10A     -9.571254    11A     -1.278076    12A     -1.276562  
      13A     -0.598618    14A     -0.592003    15A     -0.592003  
      16A     -0.589863    17A     -0.589863    18A     -0.583507  

    Virtual:                                                              

      19A      0.091133    20A      0.100680    21A      0.100680  
      22A      0.108441    23A      0.130846    24A      0.130846  
      25A      0.132958    26A      0.219585    27A      0.284981  
      28A      0.284981    29A      0.299721    30A      0.299721  
      31A      0.326291    32A      0.330179    33A      0.330179  
      34A      0.394180    35A      0.394180    36A      0.416248  
      37A      0.514777    38A      0.520492    39A      0.520492  
      40A      0.551595    41A      0.551595    42A      0.675336  
      43A      0.745583    44A      0.769170    45A      0.769170  
      46A      0.783774    47A      0.783774    48A      0.788809  
      49A      0.788809    50A      0.798278    51A      0.816001  
      52A      0.816001    53A      0.847390    54A      0.880079  
      55A      1.002243    56A      1.002243    57A      1.041119  
      58A      1.041119    59A      1.051918    60A      1.058753  
      61A      1.058753    62A      1.062631    63A      1.062631  
      64A      1.084759    65A      1.084759    66A      1.186087  
      67A      1.186087    68A      1.355149    69A      1.960292  
      70A      1.960292    71A      1.986547    72A      1.986547  
      73A      1.996624    74A      2.037427    75A      2.037427  
      76A      2.053996    77A      2.053996    78A      2.055608  
      79A      2.055608    80A      2.062339    81A      2.081468  
      82A      2.081468    83A      2.097834    84A      2.115694  
      85A      2.202740    86A      2.202740    87A      2.220934  
      88A      2.222148    89A      2.222148    90A      2.229466  
      91A      2.229466    92A      2.230652    93A      2.230652  
      94A      2.230773    95A      2.230773    96A      2.231882  
      97A      2.231882    98A      2.240702    99A      2.240702  
     100A      2.270226   101A      2.270226   102A      2.307007  
     103A      2.569162   104A      2.569162   105A      2.590452  
     106A      2.590452   107A      2.606033   108A      2.606033  
     109A      2.609812   110A      2.609812   111A      2.621076  
     112A      2.631151   113A      2.631151   114A      2.736479  
     115A      2.736479   116A      2.983386   117A      3.167349  
     118A      3.268378   119A      5.064099   120A      5.064099  
     121A      5.077140   122A      5.077140   123A      5.077707  
     124A      5.077707   125A      5.102725   126A      5.102725  
     127A      5.119138   128A      5.123628   129A      5.627930  
     130A      5.627930   131A      5.629650   132A      5.644499  
     133A      5.644499   134A      5.649767   135A      5.649767  
     136A      5.650490   137A      5.650490   138A      5.650563  
     139A      5.650563   140A      5.651271   141A      5.651271  
     142A      5.656211   143A      5.656211   144A      5.667758  
     145A      5.667758   146A      5.677077   147A      5.761324  
     148A      5.761324   149A      5.774433   150A      5.774433  
     151A      5.785582   152A      5.785582   153A      5.788334  
     154A      5.788334   155A      5.804434   156A      5.804474  
     157A      5.804474   158A      5.886503   159A      5.886503  
     160A      6.021443   161A      6.676274   162A      6.676274  
     163A      6.699379   164A      6.699379   165A      6.717905  
     166A      6.865037   167A     29.125774   168A     29.425649  

    Final Occupation by Irrep:
              A 
    DOCC [    18 ]
    NA   [    18 ]
    NB   [    18 ]

  @DF-RHF Final Energy: -1053.63319546851949

   => Energetics <=

    Nuclear Repulsion Energy =             45.5973967735079171
    One-Electron Energy =               -1547.6766877389247838
    Two-Electron Energy =                 448.4460954968973851
    Total Energy =                      -1053.6331954685194887

Computation Completed


Properties will be evaluated at   0.000000,   0.000000,   0.000000 [a0]

Properties computed using the SCF density matrix


 Multipole Moments:

 ------------------------------------------------------------------------------------
     Multipole            Electronic (a.u.)      Nuclear  (a.u.)        Total (a.u.)
 ------------------------------------------------------------------------------------

 L = 1.  Multiply by 2.5417464519 to convert [e a0] to [Debye]
 Dipole X            :         -0.0000000            0.0000000           -0.0000000
 Dipole Y            :          0.0000000            0.0000000            0.0000000
 Dipole Z            :         -0.0000000            0.0000000           -0.0000000
 Magnitude           :                                                    0.0000000

 ------------------------------------------------------------------------------------

*** tstop() called on Mac-mini.local at Tue Nov 18 11:21:50 2025
Module time:
	user time   =       0.75 seconds =       0.01 minutes
	system time =       0.09 seconds =       0.00 minutes
	total time  =          1 seconds =       0.02 minutes
Total time:
	user time   =       0.76 seconds =       0.01 minutes
	system time =       0.09 seconds =       0.00 minutes
	total time  =          1 seconds =       0.02 minutes
   => Libint2 <=

    Primary   basis highest AM E, G, H:  6, 6, 3
    Auxiliary basis highest AM E, G, H:  7, 7, 4
    Onebody   basis highest AM E, G, H:  -, -, -
    Solid Harmonics ordering:            Gaussian

*** tstart() called on Mac-mini.local
*** at Tue Nov 18 11:21:50 2025

   => Loading Basis Set <=

    Name: AUG-CC-PVQZ
    Role: ORBITAL
    Keyword: BASIS
    atoms 1-2 entry AR         line  1318 file /Users/basirbinrafiq/miniforge3/envs/p4fix/share/psi4/basis/aug-cc-pvqz.gbs 


         ---------------------------------------------------------
                       SAPT(DFT): delta HF Monomer A               
         ---------------------------------------------------------
                                   SCF
               by Justin Turney, Rob Parrish, Andy Simmonett
                          and Daniel G. A. Smith
                              RHF Reference
                        1 Threads,    500 MiB Core
         ---------------------------------------------------------

  ==> Geometry <==

    Molecular point group: c1
    Full point group: C_inf_v

    Geometry (in Angstrom), charge = 0, multiplicity = 1:

       Center              X                  Y                   Z               Mass       
    ------------   -----------------  -----------------  -----------------  -----------------
         AR           0.000000000000     0.000000000000     1.880079000000    39.962383123700
      Gh(AR)          0.000000000000     0.000000000000    -1.880079000000    39.962383123700

  Running in c1 symmetry.

  Rotational constants: A = ************  B =      0.05967  C =      0.05967 [cm^-1]
  Rotational constants: A = ************  B =   1788.88996  C =   1788.88996 [MHz]
  Nuclear repulsion =    0.000000000000000

  Charge       = 0
  Multiplicity = 1
  Electrons    = 18
  Nalpha       = 9
  Nbeta        = 9

  ==> Algorithm <==

  SCF Algorithm Type is DF.
  DIIS enabled.
  MOM disabled.
  Fractional occupation disabled.
  Guess Type is SAD.
  Energy threshold   = 1.00e-08
  Density threshold  = 1.00e-08
  Integral threshold = 1.00e-12

  ==> Primary Basis <==

  Basis Set: AUG-CC-PVQZ
    Blend: AUG-CC-PVQZ
    Number of shells: 44
    Number of basis functions: 168
    Number of Cartesian functions: 218
    Spherical Harmonics?: true
    Max angular momentum: 4

   => Loading Basis Set <=

    Name: (AUG-CC-PVQZ AUX)
    Role: JKFIT
    Keyword: DF_BASIS_SCF
    atoms 1-2 entry AR         line   998 file /Users/basirbinrafiq/miniforge3/envs/p4fix/share/psi4/basis/aug-cc-pvqz-jkfit.gbs 

  ==> Integral Setup <==

  ==> DiskDFJK: Density-Fitted J/K Matrices <==

    J tasked:                  Yes
    K tasked:                  Yes
    wK tasked:                  No
    OpenMP threads:              1
    Integrals threads:           1
    Memory [MiB]:              375
    Algorithm:                Core
    Integral Cache:           SAVE
    Schwarz Cutoff:          1E-12
    Fitting Condition:       1E-10

   => Auxiliary Basis Set <=

  Basis Set: (AUG-CC-PVQZ AUX)
    Blend: AUG-CC-PVQZ-JKFIT
    Number of shells: 92
    Number of basis functions: 368
    Number of Cartesian functions: 494
    Spherical Harmonics?: true
    Max angular momentum: 5

  Minimum eigenvalue in the overlap matrix is 5.6311832539E-04.
  Reciprocal condition number of the overlap matrix is 1.3852340640E-04.
    Using symmetric orthogonalization.

  ==> Pre-Iterations <==

  SCF Guess: Superposition of Atomic Densities via on-the-fly atomic UHF (no occupation information).

   -------------------------
    Irrep   Nso     Nmo    
   -------------------------
     A        168     168 
   -------------------------
    Total     168     168
   -------------------------

  ==> Iterations <==

                           Total Energy        Delta E     RMS |[F,P]|

   @DF-RHF iter SAD:  -526.80062130405406   -5.26801e+02   0.00000e+00 
   @DF-RHF iter   1:  -526.81613994029374   -1.55186e-02   4.08992e-04 DIIS/ADIIS
   @DF-RHF iter   2:  -526.81675725055322   -6.17310e-04   9.91609e-05 DIIS
   @DF-RHF iter   3:  -526.81681052727265   -5.32767e-05   3.29193e-06 DIIS
   @DF-RHF iter   4:  -526.81681060751600   -8.02434e-08   1.40150e-07 DIIS
   @DF-RHF iter   5:  -526.81681060768335   -1.67347e-10   1.02291e-08 DIIS
   @DF-RHF iter   6:  -526.81681060768597   -2.61480e-12   7.10954e-10 DIIS
  Energy and wave function converged.


  ==> Post-Iterations <==

    Orbital Energies [Eh]
    ---------------------

    Doubly Occupied:                                                      

       1A   -118.610481     2A    -12.322267     3A     -9.571555  
       4A     -9.571555     5A     -9.571554     6A     -1.277424  
       7A     -0.591071     8A     -0.591066     9A     -0.591066  

    Virtual:                                                              

      10A      0.068735    11A      0.091741    12A      0.091741  
      13A      0.092520    14A      0.123293    15A      0.126096  
      16A      0.126096    17A      0.197176    18A      0.304279  
      19A      0.304279    20A      0.310236    21A      0.310236  
      22A      0.322901    23A      0.374311    24A      0.374311  
      25A      0.375646    26A      0.385700    27A      0.385700  
      28A      0.433289    29A      0.437812    30A      0.437812  
      31A      0.478038    32A      0.537576    33A      0.537576  
      34A      0.658208    35A      0.774552    36A      0.779058  
      37A      0.779058    38A      0.801412    39A      0.801412  
      40A      0.854733    41A      1.024074    42A      1.024074  
      43A      1.048284    44A      1.055069    45A      1.055069  
      46A      1.060631    47A      1.060631    48A      1.137408  
      49A      1.137408    50A      1.145329    51A      1.145329  
      52A      1.145551    53A      1.145551    54A      1.151470  
      55A      1.204285    56A      1.210219    57A      1.210219  
      58A      1.255981    59A      1.255981    60A      1.311839  
      61A      1.311839    62A      1.328112    63A      1.494895  
      64A      1.974595    65A      1.974595    66A      2.044942  
      67A      2.045969    68A      2.045969    69A      2.069088  
      70A      2.069088    71A      2.106162    72A      2.229979  
      73A      2.229979    74A      2.230658    75A      2.230658  
      76A      2.230674    77A      2.230674    78A      2.230690  
      79A      2.230690    80A      2.244506    81A      2.354178  
      82A      2.354178    83A      2.354190    84A      2.354190  
      85A      2.355174    86A      2.355174    87A      2.364314  
      88A      2.364314    89A      2.387404    90A      2.607840  
      91A      2.607840    92A      2.609936    93A      2.609936  
      94A      2.641628    95A      2.641628    96A      2.745169  
      97A      3.071961    98A      3.071961    99A      3.075354  
     100A      3.075354   101A      3.077648   102A      3.077648  
     103A      3.084674   104A      3.126475   105A      3.126475  
     106A      3.181719   107A      3.261018   108A      3.386033  
     109A      3.455328   110A      3.455328   111A      3.480009  
     112A      3.480009   113A      3.540206   114A      5.070911  
     115A      5.070911   116A      5.090181   117A      5.090181  
     118A      5.123564   119A      5.650397   120A      5.650397  
     121A      5.650405   122A      5.650405   123A      5.650907  
     124A      5.650907   125A      5.656255   126A      5.656255  
     127A      5.664311   128A      5.786794   129A      5.786794  
     130A      5.788147   131A      5.788147   132A      5.811080  
     133A      5.811080   134A      5.892793   135A      6.583326  
     136A      6.583326   137A      6.583327   138A      6.583327  
     139A      6.584127   140A      6.584127   141A      6.591080  
     142A      6.591080   143A      6.607565   144A      6.689283  
     145A      6.689283   146A      6.785983   147A      7.808220  
     148A      7.808220   149A      7.809836   150A      7.809836  
     151A      7.835324   152A      7.835324   153A      7.899668  
     154A      8.067128   155A      8.067128   156A      8.172853  
     157A      9.283381   158A      9.283381   159A      9.300704  
     160A      9.300704   161A      9.331181   162A      9.819818  
     163A     29.274193   164A     36.283646   165A     36.283646  
     166A     36.316442   167A     48.749163   168A    180.144365  

    Final Occupation by Irrep:
              A 
    DOCC [     9 ]
    NA   [     9 ]
    NB   [     9 ]

  @DF-RHF Final Energy:  -526.81681060768597

   => Energetics <=

    Nuclear Repulsion Energy =              0.0000000000000000
    One-Electron Energy =                -728.2375465141808490
    Two-Electron Energy =                 201.4207359064948548
    Total Energy =                       -526.8168106076859658

Computation Completed


Properties will be evaluated at   0.000000,   0.000000,   0.000000 [a0]

Properties computed using the SCF density matrix


 Multipole Moments:

 ------------------------------------------------------------------------------------
     Multipole            Electronic (a.u.)      Nuclear  (a.u.)        Total (a.u.)
 ------------------------------------------------------------------------------------

 L = 1.  Multiply by 2.5417464519 to convert [e a0] to [Debye]
 Dipole X            :         -0.0000000            0.0000000           -0.0000000
 Dipole Y            :          0.0000000            0.0000000            0.0000000
 Dipole Z            :        -63.9509193           63.9510193            0.0000999
 Magnitude           :                                                    0.0000999

 ------------------------------------------------------------------------------------

*** tstop() called on Mac-mini.local at Tue Nov 18 11:21:51 2025
Module time:
	user time   =       0.58 seconds =       0.01 minutes
	system time =       0.04 seconds =       0.00 minutes
	total time  =          1 seconds =       0.02 minutes
Total time:
	user time   =       1.34 seconds =       0.02 minutes
	system time =       0.13 seconds =       0.00 minutes
	total time  =          2 seconds =       0.03 minutes
   => Libint2 <=

    Primary   basis highest AM E, G, H:  6, 6, 3
    Auxiliary basis highest AM E, G, H:  7, 7, 4
    Onebody   basis highest AM E, G, H:  -, -, -
    Solid Harmonics ordering:            Gaussian

*** tstart() called on Mac-mini.local
*** at Tue Nov 18 11:21:51 2025

   => Loading Basis Set <=

    Name: AUG-CC-PVQZ
    Role: ORBITAL
    Keyword: BASIS
    atoms 1-2 entry AR         line  1318 file /Users/basirbinrafiq/miniforge3/envs/p4fix/share/psi4/basis/aug-cc-pvqz.gbs 


         ---------------------------------------------------------
                       SAPT(DFT): delta HF Monomer B               
         ---------------------------------------------------------
                                   SCF
               by Justin Turney, Rob Parrish, Andy Simmonett
                          and Daniel G. A. Smith
                              RHF Reference
                        1 Threads,    500 MiB Core
         ---------------------------------------------------------

  ==> Geometry <==

    Molecular point group: c1
    Full point group: C_inf_v

    Geometry (in Angstrom), charge = 0, multiplicity = 1:

       Center              X                  Y                   Z               Mass       
    ------------   -----------------  -----------------  -----------------  -----------------
      Gh(AR)          0.000000000000     0.000000000000     1.880079000000    39.962383123700
         AR           0.000000000000     0.000000000000    -1.880079000000    39.962383123700

  Running in c1 symmetry.

  Rotational constants: A = ************  B =      0.05967  C =      0.05967 [cm^-1]
  Rotational constants: A = ************  B =   1788.88996  C =   1788.88996 [MHz]
  Nuclear repulsion =    0.000000000000000

  Charge       = 0
  Multiplicity = 1
  Electrons    = 18
  Nalpha       = 9
  Nbeta        = 9

  ==> Algorithm <==

  SCF Algorithm Type is DF.
  DIIS enabled.
  MOM disabled.
  Fractional occupation disabled.
  Guess Type is SAD.
  Energy threshold   = 1.00e-08
  Density threshold  = 1.00e-08
  Integral threshold = 1.00e-12

  ==> Primary Basis <==

  Basis Set: AUG-CC-PVQZ
    Blend: AUG-CC-PVQZ
    Number of shells: 44
    Number of basis functions: 168
    Number of Cartesian functions: 218
    Spherical Harmonics?: true
    Max angular momentum: 4

   => Loading Basis Set <=

    Name: (AUG-CC-PVQZ AUX)
    Role: JKFIT
    Keyword: DF_BASIS_SCF
    atoms 1-2 entry AR         line   998 file /Users/basirbinrafiq/miniforge3/envs/p4fix/share/psi4/basis/aug-cc-pvqz-jkfit.gbs 

  ==> Integral Setup <==

  ==> DiskDFJK: Density-Fitted J/K Matrices <==

    J tasked:                  Yes
    K tasked:                  Yes
    wK tasked:                  No
    OpenMP threads:              1
    Integrals threads:           1
    Memory [MiB]:              375
    Algorithm:                Core
    Integral Cache:           SAVE
    Schwarz Cutoff:          1E-12
    Fitting Condition:       1E-10

   => Auxiliary Basis Set <=

  Basis Set: (AUG-CC-PVQZ AUX)
    Blend: AUG-CC-PVQZ-JKFIT
    Number of shells: 92
    Number of basis functions: 368
    Number of Cartesian functions: 494
    Spherical Harmonics?: true
    Max angular momentum: 5

  Minimum eigenvalue in the overlap matrix is 5.6311832539E-04.
  Reciprocal condition number of the overlap matrix is 1.3852340640E-04.
    Using symmetric orthogonalization.

  ==> Pre-Iterations <==

  SCF Guess: Superposition of Atomic Densities via on-the-fly atomic UHF (no occupation information).

   -------------------------
    Irrep   Nso     Nmo    
   -------------------------
     A        168     168 
   -------------------------
    Total     168     168
   -------------------------

  ==> Iterations <==

                           Total Energy        Delta E     RMS |[F,P]|

   @DF-RHF iter SAD:  -526.80062130404644   -5.26801e+02   0.00000e+00 
   @DF-RHF iter   1:  -526.81613994028544   -1.55186e-02   4.08992e-04 DIIS/ADIIS
   @DF-RHF iter   2:  -526.81675725054311   -6.17310e-04   9.91609e-05 DIIS
   @DF-RHF iter   3:  -526.81681052726412   -5.32767e-05   3.29193e-06 DIIS
   @DF-RHF iter   4:  -526.81681060750748   -8.02434e-08   1.40150e-07 DIIS
   @DF-RHF iter   5:  -526.81681060767482   -1.67347e-10   1.02291e-08 DIIS
   @DF-RHF iter   6:  -526.81681060767698   -2.16005e-12   7.10954e-10 DIIS
  Energy and wave function converged.


  ==> Post-Iterations <==

    Orbital Energies [Eh]
    ---------------------

    Doubly Occupied:                                                      

       1A   -118.610481     2A    -12.322267     3A     -9.571555  
       4A     -9.571555     5A     -9.571554     6A     -1.277424  
       7A     -0.591071     8A     -0.591066     9A     -0.591066  

    Virtual:                                                              

      10A      0.068735    11A      0.091741    12A      0.091741  
      13A      0.092520    14A      0.123293    15A      0.126096  
      16A      0.126096    17A      0.197176    18A      0.304279  
      19A      0.304279    20A      0.310236    21A      0.310236  
      22A      0.322901    23A      0.374311    24A      0.374311  
      25A      0.375646    26A      0.385700    27A      0.385700  
      28A      0.433289    29A      0.437812    30A      0.437812  
      31A      0.478038    32A      0.537576    33A      0.537576  
      34A      0.658208    35A      0.774552    36A      0.779058  
      37A      0.779058    38A      0.801412    39A      0.801412  
      40A      0.854733    41A      1.024074    42A      1.024074  
      43A      1.048284    44A      1.055069    45A      1.055069  
      46A      1.060631    47A      1.060631    48A      1.137408  
      49A      1.137408    50A      1.145329    51A      1.145329  
      52A      1.145551    53A      1.145551    54A      1.151470  
      55A      1.204285    56A      1.210219    57A      1.210219  
      58A      1.255981    59A      1.255981    60A      1.311839  
      61A      1.311839    62A      1.328112    63A      1.494895  
      64A      1.974595    65A      1.974595    66A      2.044942  
      67A      2.045969    68A      2.045969    69A      2.069088  
      70A      2.069088    71A      2.106162    72A      2.229979  
      73A      2.229979    74A      2.230658    75A      2.230658  
      76A      2.230674    77A      2.230674    78A      2.230690  
      79A      2.230690    80A      2.244506    81A      2.354178  
      82A      2.354178    83A      2.354190    84A      2.354190  
      85A      2.355174    86A      2.355174    87A      2.364314  
      88A      2.364314    89A      2.387404    90A      2.607840  
      91A      2.607840    92A      2.609936    93A      2.609936  
      94A      2.641628    95A      2.641628    96A      2.745169  
      97A      3.071961    98A      3.071961    99A      3.075354  
     100A      3.075354   101A      3.077648   102A      3.077648  
     103A      3.084674   104A      3.126475   105A      3.126475  
     106A      3.181719   107A      3.261018   108A      3.386033  
     109A      3.455328   110A      3.455328   111A      3.480009  
     112A      3.480009   113A      3.540206   114A      5.070911  
     115A      5.070911   116A      5.090181   117A      5.090181  
     118A      5.123564   119A      5.650397   120A      5.650397  
     121A      5.650405   122A      5.650405   123A      5.650907  
     124A      5.650907   125A      5.656255   126A      5.656255  
     127A      5.664311   128A      5.786794   129A      5.786794  
     130A      5.788147   131A      5.788147   132A      5.811080  
     133A      5.811080   134A      5.892793   135A      6.583326  
     136A      6.583326   137A      6.583327   138A      6.583327  
     139A      6.584127   140A      6.584127   141A      6.591080  
     142A      6.591080   143A      6.607565   144A      6.689283  
     145A      6.689283   146A      6.785983   147A      7.808220  
     148A      7.808220   149A      7.809836   150A      7.809836  
     151A      7.835324   152A      7.835324   153A      7.899668  
     154A      8.067128   155A      8.067128   156A      8.172853  
     157A      9.283381   158A      9.283381   159A      9.300704  
     160A      9.300704   161A      9.331181   162A      9.819818  
     163A     29.274193   164A     36.283646   165A     36.283646  
     166A     36.316442   167A     48.749163   168A    180.144365  

    Final Occupation by Irrep:
              A 
    DOCC [     9 ]
    NA   [     9 ]
    NB   [     9 ]

  @DF-RHF Final Energy:  -526.81681060767698

   => Energetics <=

    Nuclear Repulsion Energy =              0.0000000000000000
    One-Electron Energy =                -728.2375465141708446
    Two-Electron Energy =                 201.4207359064938316
    Total Energy =                       -526.8168106076769845

Computation Completed


Properties will be evaluated at   0.000000,   0.000000,   0.000000 [a0]

Properties computed using the SCF density matrix


 Multipole Moments:

 ------------------------------------------------------------------------------------
     Multipole            Electronic (a.u.)      Nuclear  (a.u.)        Total (a.u.)
 ------------------------------------------------------------------------------------

 L = 1.  Multiply by 2.5417464519 to convert [e a0] to [Debye]
 Dipole X            :         -0.0000000            0.0000000           -0.0000000
 Dipole Y            :          0.0000000            0.0000000            0.0000000
 Dipole Z            :         63.9509193          -63.9510193           -0.0000999
 Magnitude           :                                                    0.0000999

 ------------------------------------------------------------------------------------

*** tstop() called on Mac-mini.local at Tue Nov 18 11:21:51 2025
Module time:
	user time   =       0.58 seconds =       0.01 minutes
	system time =       0.04 seconds =       0.00 minutes
	total time  =          0 seconds =       0.00 minutes
Total time:
	user time   =       1.92 seconds =       0.03 minutes
	system time =       0.17 seconds =       0.00 minutes
	total time  =          2 seconds =       0.03 minutes

         ---------------------------------------------------------
                        SAPT(DFT): delta HF Segment                

                   by Daniel G. A. Smith and Rob Parrish           
         ---------------------------------------------------------


  ==> Preparing SAPT Data Cache <== 

  ==> DiskDFJK: Density-Fitted J/K Matrices <==

    J tasked:                  Yes
    K tasked:                  Yes
    wK tasked:                  No
    OpenMP threads:              1
    Integrals threads:           1
    Memory [MiB]:              375
    Algorithm:                Core
    Integral Cache:           SAVE
    Schwarz Cutoff:          1E-12
    Fitting Condition:       1E-10

   => Auxiliary Basis Set <=

  Basis Set: (AUG-CC-PVQZ AUX)
    Blend: AUG-CC-PVQZ-JKFIT
    Number of shells: 92
    Number of basis functions: 368
    Number of Cartesian functions: 494
    Spherical Harmonics?: true
    Max angular momentum: 5


  ==> E10 Electostatics <== 

    Elst10,r                         -0.18668820 [mEh]

  ==> E10 Exchange <== 

    Exch10(S^2)                       0.64077464 [mEh]
    Exch10                            0.64114901 [mEh]

  ==> E20 Induction <== 

   => Uncoupled Induction <= 

    Ind20,u (A<-B)                   -0.10429341 [mEh]
    Ind20,u (A->B)                   -0.10429341 [mEh]
    Ind20,u                          -0.20858683 [mEh]
    Exch-Ind20,u (A<-B)               0.10195922 [mEh]
    Exch-Ind20,u (A->B)               0.10195922 [mEh]
    Exch-Ind20,u                      0.20391844 [mEh]

   => Coupled Induction <= 

   ---------------------------------------------------
              SAPT Coupled Induction Solver           
   ---------------------------------------------------
    Maxiter             =          20
    Convergence         =   1.000E-06
   ---------------------------------------------------
     Iter       (A<-B)           (B->A)      Time [s]
   ---------------------------------------------------
    Guess    7.067526e-02     7.067526e-02          0
        1    7.479782e-03     7.479782e-03          0
        2    1.902503e-03     1.902503e-03          0
        3    4.965894e-04     4.965894e-04          0
        4    6.671303e-05     6.671303e-05          0
        5    1.138914e-05     1.138914e-05          0
        6    1.909320e-06     1.909320e-06          0
        7    2.449080e-07*    2.449080e-07*         0
   ---------------------------------------------------

    Ind20,r (A<-B)                   -0.11800831 [mEh]
    Ind20,r (A->B)                   -0.11800831 [mEh]
    Ind20,r                          -0.23601662 [mEh]
    Exch-Ind20,r (A<-B)               0.11584776 [mEh]
    Exch-Ind20,r (A->B)               0.11584776 [mEh]
    Exch-Ind20,r                      0.23169552 [mEh]

   Partial SAPT(HF) Results, to compute Delta HF (dHF)
  ---------------------------------------------------------------------------------------------------------
    Electrostatics                   -0.18668820 [mEh]     -0.11714862 [kcal/mol]     -0.49014981 [kJ/mol]
      Elst10,r                       -0.18668820 [mEh]     -0.11714862 [kcal/mol]     -0.49014981 [kJ/mol]

    Exchange                          0.64114901 [mEh]      0.40232708 [kcal/mol]      1.68333650 [kJ/mol]
      Exch10                          0.64114901 [mEh]      0.40232708 [kcal/mol]      1.68333650 [kJ/mol]
      Exch10(S^2)                     0.64077464 [mEh]      0.40209216 [kcal/mol]      1.68235358 [kJ/mol]

    Induction (no dHF)               -0.00432110 [mEh]     -0.00271153 [kcal/mol]     -0.01134505 [kJ/mol]
      Ind20,r                        -0.23601662 [mEh]     -0.14810266 [kcal/mol]     -0.61966155 [kJ/mol]
      Exch-Ind20,r                    0.23169552 [mEh]      0.14539113 [kcal/mol]      0.60831649 [kJ/mol]
      Induction (A<-B) (no dHF)      -0.00216055 [mEh]     -0.00135577 [kcal/mol]     -0.00567253 [kJ/mol]
      Induction (A->B) (no dHF)      -0.00216055 [mEh]     -0.00135577 [kcal/mol]     -0.00567253 [kJ/mol]

    Subtotal SAPT(HF)                 0.45013971 [mEh]      0.28246693 [kcal/mol]      1.18184164 [kJ/mol]
    Total HF                          0.42574684 [mEh]      0.26716018 [kcal/mol]      1.11779818 [kJ/mol]
    Delta HF                         -0.02439286 [mEh]     -0.01530675 [kcal/mol]     -0.06404346 [kJ/mol]
  ---------------------------------------------------------------------------------------------------------
   Partial SAPT(HF) Results, alternate SAPT0-like display
  ---------------------------------------------------------------------------------------------------------
    Induction                        -0.02871397 [mEh]     -0.01801829 [kcal/mol]     -0.07538851 [kJ/mol]
      Ind20,r                        -0.23601662 [mEh]     -0.14810266 [kcal/mol]     -0.61966155 [kJ/mol]
      Exch-Ind20,r                    0.23169552 [mEh]      0.14539113 [kcal/mol]      0.60831649 [kJ/mol]
      delta HF,r (2)                 -0.02439286 [mEh]     -0.01530675 [kcal/mol]     -0.06404346 [kJ/mol]
      Induction (A<-B)               -0.01435698 [mEh]     -0.00900914 [kcal/mol]     -0.03769426 [kJ/mol]
      Induction (A->B)               -0.01435698 [mEh]     -0.00900914 [kcal/mol]     -0.03769426 [kJ/mol]
  ---------------------------------------------------------------------------------------------------------
   => Libint2 <=

    Primary   basis highest AM E, G, H:  6, 6, 3
    Auxiliary basis highest AM E, G, H:  7, 7, 4
    Onebody   basis highest AM E, G, H:  -, -, -
    Solid Harmonics ordering:            Gaussian

*** tstart() called on Mac-mini.local
*** at Tue Nov 18 11:21:52 2025

   => Loading Basis Set <=

    Name: AUG-CC-PVQZ
    Role: ORBITAL
    Keyword: BASIS
    atoms 1-2 entry AR         line  1318 file /Users/basirbinrafiq/miniforge3/envs/p4fix/share/psi4/basis/aug-cc-pvqz.gbs 


         ---------------------------------------------------------
                          SAPT(DFT): DFT Monomer A                 
         ---------------------------------------------------------
                                   SCF
               by Justin Turney, Rob Parrish, Andy Simmonett
                          and Daniel G. A. Smith
                              RKS Reference
                        1 Threads,    500 MiB Core
         ---------------------------------------------------------

  ==> Geometry <==

    Molecular point group: c1
    Full point group: C_inf_v

    Geometry (in Angstrom), charge = 0, multiplicity = 1:

       Center              X                  Y                   Z               Mass       
    ------------   -----------------  -----------------  -----------------  -----------------
         AR           0.000000000000     0.000000000000     1.880079000000    39.962383123700
      Gh(AR)          0.000000000000     0.000000000000    -1.880079000000    39.962383123700

  Running in c1 symmetry.

  Rotational constants: A = ************  B =      0.05967  C =      0.05967 [cm^-1]
  Rotational constants: A = ************  B =   1788.88996  C =   1788.88996 [MHz]
  Nuclear repulsion =    0.000000000000000

  Charge       = 0
  Multiplicity = 1
  Electrons    = 18
  Nalpha       = 9
  Nbeta        = 9

  ==> Algorithm <==

  SCF Algorithm Type is DF.
  DIIS enabled.
  MOM disabled.
  Fractional occupation disabled.
  Guess Type is SAD.
  Energy threshold   = 1.00e-08
  Density threshold  = 1.00e-08
  Integral threshold = 1.00e-12

  ==> Primary Basis <==

  Basis Set: AUG-CC-PVQZ
    Blend: AUG-CC-PVQZ
    Number of shells: 44
    Number of basis functions: 168
    Number of Cartesian functions: 218
    Spherical Harmonics?: true
    Max angular momentum: 4

  ==> DFT Potential <==

   => LibXC <=

    Version 7.0.0
    S. Lehtola, C. Steigemann, M. J.T. Oliveira, and M. A.L. Marques.,  SoftwareX 7, 1–5 (2018) (10.1016/j.softx.2017.11.002)

   => Composite Functional: PBE0 <= 

    PBE0 Hyb-GGA Exchange-Correlation Functional

    C. Adamo and V. Barone.,  J. Chem. Phys. 110, 6158 (1999) (10.1063/1.478522)
    M. Ernzerhof and G. E. Scuseria.,  J. Chem. Phys. 110, 5029 (1999) (10.1063/1.478401)

    Deriv               =              1
    GGA                 =           TRUE
    Meta                =          FALSE

    Exchange Hybrid     =           TRUE
    MP2 Hybrid          =          FALSE

   => Exchange Functionals <=

    0.7500   Perdew, Burke & Ernzerhof

   => Exact (HF) Exchange <=

    0.2500               HF 

   => Correlation Functionals <=

    1.0000   Perdew, Burke & Ernzerhof

   => LibXC Density Thresholds  <==

    XC_HYB_GGA_XC_PBEH:  1.00E-15 

   => Asymptotic Correction <=

    X Functional        =    XC_GGA_X_LB
    C Functional        =   XC_LDA_C_VWN
    Bulk Shift          =       0.138799
    GRAC Alpha          =       0.500000
    GRAC Beta           =      40.000000

   => Molecular Quadrature <=

    Radial Scheme          =       TREUTLER
    Pruning Scheme         =           NONE
    Nuclear Scheme         =       TREUTLER

    Blocking Scheme        =         OCTREE
    BS radius alpha        =              1
    Pruning alpha          =              1
    Radial Points          =             75
    Spherical Points       =            302
    Total Points           =          43662
    Total Blocks           =            440
    Max Points             =            249
    Max Functions          =            165
    Weights Tolerance      =       1.00E-15

   => Loading Basis Set <=

    Name: (AUG-CC-PVQZ AUX)
    Role: JKFIT
    Keyword: DF_BASIS_SCF
    atoms 1-2 entry AR         line   998 file /Users/basirbinrafiq/miniforge3/envs/p4fix/share/psi4/basis/aug-cc-pvqz-jkfit.gbs 

  ==> Integral Setup <==

  ==> DiskDFJK: Density-Fitted J/K Matrices <==

    J tasked:                  Yes
    K tasked:                  Yes
    wK tasked:                  No
    OpenMP threads:              1
    Integrals threads:           1
    Memory [MiB]:              217
    Algorithm:                Core
    Integral Cache:           SAVE
    Schwarz Cutoff:          1E-12
    Fitting Condition:       1E-10

   => Auxiliary Basis Set <=

  Basis Set: (AUG-CC-PVQZ AUX)
    Blend: AUG-CC-PVQZ-JKFIT
    Number of shells: 92
    Number of basis functions: 368
    Number of Cartesian functions: 494
    Spherical Harmonics?: true
    Max angular momentum: 5

  Cached 100.0% of DFT collocation blocks in 0.154 [GiB].

  Minimum eigenvalue in the overlap matrix is 5.6311832539E-04.
  Reciprocal condition number of the overlap matrix is 1.3852340640E-04.
    Using symmetric orthogonalization.

  ==> Pre-Iterations <==

  SCF Guess: Superposition of Atomic Densities via on-the-fly atomic UHF (no occupation information).

   -------------------------
    Irrep   Nso     Nmo    
   -------------------------
     A        168     168 
   -------------------------
    Total     168     168
   -------------------------

  ==> Iterations <==

                           Total Energy        Delta E     RMS |[F,P]|

   @DF-RKS iter SAD:  -527.37236350553792   -5.27372e+02   0.00000e+00 
   @DF-RKS iter   1:  -527.38141830088159   -9.05480e-03   8.17298e-04 DIIS/ADIIS
   @DF-RKS iter   2:  -527.38347502989313   -2.05673e-03   4.85788e-04 DIIS/ADIIS
   @DF-RKS iter   3:  -527.38515562424539   -1.68059e-03   3.12569e-05 DIIS
   @DF-RKS iter   4:  -527.38517448407242   -1.88598e-05   2.36532e-07 DIIS
   @DF-RKS iter   5:  -527.38517450670520   -2.26328e-08   5.36638e-09 DIIS
   @DF-RKS iter   6:  -527.38517450435245    2.35275e-09   3.02107e-09 DIIS
  Energy and wave function converged.


  ==> Post-Iterations <==

   Electrons on quadrature grid:
      Ntotal   =   17.9999982204 ; deviation = -1.780e-06 

    Orbital Energies [Eh]
    ---------------------

    Doubly Occupied:                                                      

       1A   -115.442745     2A    -11.356037     3A     -8.879192  
       4A     -8.879192     5A     -8.879190     6A     -1.130097  
       7A     -0.578039     8A     -0.578037     9A     -0.578037  

    Virtual:                                                              

      10A     -0.081404    11A     -0.036756    12A     -0.034824  
      13A     -0.034824    14A      0.023951    15A      0.028486  
      16A      0.028486    17A      0.060356    18A      0.082664  
      19A      0.082705    20A      0.102476    21A      0.102476  
      22A      0.144321    23A      0.244609    24A      0.273673  
      25A      0.273673    26A      0.288557    27A      0.288558  
      28A      0.307404    29A      0.311687    30A      0.311687  
      31A      0.326977    32A      0.326977    33A      0.332806  
      34A      0.464119    35A      0.464146    36A      0.469594  
      37A      0.496280    38A      0.496280    39A      0.497030  
      40A      0.574264    41A      0.768846    42A      0.768886  
      43A      0.769029    44A      0.769029    45A      0.771778  
      46A      0.771778    47A      0.819676    48A      1.040566  
      49A      1.040578    50A      1.041615    51A      1.050381  
      52A      1.050381    53A      1.051088    54A      1.051088  
      55A      1.071732    56A      1.071732    57A      1.112256  
      58A      1.165906    59A      1.165907    60A      1.180642  
      61A      1.202357    62A      1.202357    63A      1.337965  
      64A      1.579814    65A      1.579814    66A      1.620378  
      67A      1.620382    68A      1.645928    69A      1.645928  
      70A      1.656675    71A      1.698104    72A      1.878549  
      73A      1.878555    74A      1.878555    75A      1.878559  
      76A      1.879293    77A      1.879296    78A      1.886750  
      79A      1.886750    80A      1.909689    81A      2.177873  
      82A      2.177873    83A      2.186281    84A      2.186391  
      85A      2.188150    86A      2.188150    87A      2.201778  
      88A      2.256024    89A      2.256030    90A      2.256359  
      91A      2.256359    92A      2.265483    93A      2.265511  
      94A      2.302449    95A      2.302449    96A      2.417253  
      97A      2.738234    98A      2.976122    99A      2.976157  
     100A      2.980654   101A      2.980654   102A      2.984296  
     103A      2.984296   104A      2.986077   105A      3.014635  
     106A      3.014635   107A      3.159189   108A      3.227713  
     109A      3.362412   110A      3.362428   111A      3.383936  
     112A      3.383936   113A      3.449666   114A      4.520533  
     115A      4.520647   116A      4.540503   117A      4.540503  
     118A      4.574866   119A      5.119527   120A      5.119599  
     121A      5.119610   122A      5.119610   123A      5.119928  
     124A      5.120495   125A      5.125693   126A      5.125693  
     127A      5.133309   128A      5.227063   129A      5.227063  
     130A      5.228503   131A      5.228631   132A      5.254585  
     133A      5.254585   134A      5.344503   135A      6.066044  
     136A      6.066044   137A      6.153949   138A      6.486777  
     139A      6.486906   140A      6.487306   141A      6.487306  
     142A      6.490211   143A      6.490238   144A      6.496409  
     145A      6.496409   146A      6.523359   147A      7.712748  
     148A      7.712782   149A      7.714470   150A      7.714470  
     151A      7.736146   152A      7.736146   153A      7.799050  
     154A      7.972872   155A      7.972872   156A      8.071495  
     157A      9.189539   158A      9.189552   159A      9.203081  
     160A      9.203081   161A      9.233828   162A      9.723494  
     163A     28.369356   164A     36.187844   165A     36.187844  
     166A     36.218386   167A     48.653090   168A    180.056071  

    Final Occupation by Irrep:
              A 
    DOCC [     9 ]
    NA   [     9 ]
    NB   [     9 ]

  @DF-RKS Final Energy:  -527.38517450435245

   => Energetics <=

    Nuclear Repulsion Energy =              0.0000000000000000
    One-Electron Energy =                -728.2893092580454777
    Two-Electron Energy =                 224.0937166858212777
    DFT Exchange-Correlation Energy =     -23.1895819321282630
    Empirical Dispersion Energy =           0.0000000000000000
    VV10 Nonlocal Energy =                  0.0000000000000000
    Total Energy =                       -527.3851745043524488

Computation Completed


Properties will be evaluated at   0.000000,   0.000000,   0.000000 [a0]

Properties computed using the SCF density matrix


 Multipole Moments:

 ------------------------------------------------------------------------------------
     Multipole            Electronic (a.u.)      Nuclear  (a.u.)        Total (a.u.)
 ------------------------------------------------------------------------------------

 L = 1.  Multiply by 2.5417464519 to convert [e a0] to [Debye]
 Dipole X            :         -0.0000000            0.0000000           -0.0000000
 Dipole Y            :         -0.0000000            0.0000000           -0.0000000
 Dipole Z            :        -63.9509022           63.9510193            0.0001170
 Magnitude           :                                                    0.0001170

 ------------------------------------------------------------------------------------

*** tstop() called on Mac-mini.local at Tue Nov 18 11:21:53 2025
Module time:
	user time   =       1.20 seconds =       0.02 minutes
	system time =       0.06 seconds =       0.00 minutes
	total time  =          1 seconds =       0.02 minutes
Total time:
	user time   =       3.93 seconds =       0.07 minutes
	system time =       0.24 seconds =       0.00 minutes
	total time  =          4 seconds =       0.07 minutes
   => Libint2 <=

    Primary   basis highest AM E, G, H:  6, 6, 3
    Auxiliary basis highest AM E, G, H:  7, 7, 4
    Onebody   basis highest AM E, G, H:  -, -, -
    Solid Harmonics ordering:            Gaussian

*** tstart() called on Mac-mini.local
*** at Tue Nov 18 11:21:53 2025

   => Loading Basis Set <=

    Name: AUG-CC-PVQZ
    Role: ORBITAL
    Keyword: BASIS
    atoms 1-2 entry AR         line  1318 file /Users/basirbinrafiq/miniforge3/envs/p4fix/share/psi4/basis/aug-cc-pvqz.gbs 


         ---------------------------------------------------------
                          SAPT(DFT): DFT Monomer B                 
         ---------------------------------------------------------
                                   SCF
               by Justin Turney, Rob Parrish, Andy Simmonett
                          and Daniel G. A. Smith
                              RKS Reference
                        1 Threads,    500 MiB Core
         ---------------------------------------------------------

  ==> Geometry <==

    Molecular point group: c1
    Full point group: C_inf_v

    Geometry (in Angstrom), charge = 0, multiplicity = 1:

       Center              X                  Y                   Z               Mass       
    ------------   -----------------  -----------------  -----------------  -----------------
      Gh(AR)          0.000000000000     0.000000000000     1.880079000000    39.962383123700
         AR           0.000000000000     0.000000000000    -1.880079000000    39.962383123700

  Running in c1 symmetry.

  Rotational constants: A = ************  B =      0.05967  C =      0.05967 [cm^-1]
  Rotational constants: A = ************  B =   1788.88996  C =   1788.88996 [MHz]
  Nuclear repulsion =    0.000000000000000

  Charge       = 0
  Multiplicity = 1
  Electrons    = 18
  Nalpha       = 9
  Nbeta        = 9

  ==> Algorithm <==

  SCF Algorithm Type is DF.
  DIIS enabled.
  MOM disabled.
  Fractional occupation disabled.
  Guess Type is SAD.
  Energy threshold   = 1.00e-08
  Density threshold  = 1.00e-08
  Integral threshold = 1.00e-12

  ==> Primary Basis <==

  Basis Set: AUG-CC-PVQZ
    Blend: AUG-CC-PVQZ
    Number of shells: 44
    Number of basis functions: 168
    Number of Cartesian functions: 218
    Spherical Harmonics?: true
    Max angular momentum: 4

  ==> DFT Potential <==

   => LibXC <=

    Version 7.0.0
    S. Lehtola, C. Steigemann, M. J.T. Oliveira, and M. A.L. Marques.,  SoftwareX 7, 1–5 (2018) (10.1016/j.softx.2017.11.002)

   => Composite Functional: PBE0 <= 

    PBE0 Hyb-GGA Exchange-Correlation Functional

    C. Adamo and V. Barone.,  J. Chem. Phys. 110, 6158 (1999) (10.1063/1.478522)
    M. Ernzerhof and G. E. Scuseria.,  J. Chem. Phys. 110, 5029 (1999) (10.1063/1.478401)

    Deriv               =              1
    GGA                 =           TRUE
    Meta                =          FALSE

    Exchange Hybrid     =           TRUE
    MP2 Hybrid          =          FALSE

   => Exchange Functionals <=

    0.7500   Perdew, Burke & Ernzerhof

   => Exact (HF) Exchange <=

    0.2500               HF 

   => Correlation Functionals <=

    1.0000   Perdew, Burke & Ernzerhof

   => LibXC Density Thresholds  <==

    XC_HYB_GGA_XC_PBEH:  1.00E-15 

   => Asymptotic Correction <=

    X Functional        =    XC_GGA_X_LB
    C Functional        =   XC_LDA_C_VWN
    Bulk Shift          =       0.138799
    GRAC Alpha          =       0.500000
    GRAC Beta           =      40.000000

   => Molecular Quadrature <=

    Radial Scheme          =       TREUTLER
    Pruning Scheme         =           NONE
    Nuclear Scheme         =       TREUTLER

    Blocking Scheme        =         OCTREE
    BS radius alpha        =              1
    Pruning alpha          =              1
    Radial Points          =             75
    Spherical Points       =            302
    Total Points           =          43662
    Total Blocks           =            440
    Max Points             =            249
    Max Functions          =            165
    Weights Tolerance      =       1.00E-15

   => Loading Basis Set <=

    Name: (AUG-CC-PVQZ AUX)
    Role: JKFIT
    Keyword: DF_BASIS_SCF
    atoms 1-2 entry AR         line   998 file /Users/basirbinrafiq/miniforge3/envs/p4fix/share/psi4/basis/aug-cc-pvqz-jkfit.gbs 

  ==> Integral Setup <==

  ==> DiskDFJK: Density-Fitted J/K Matrices <==

    J tasked:                  Yes
    K tasked:                  Yes
    wK tasked:                  No
    OpenMP threads:              1
    Integrals threads:           1
    Memory [MiB]:              217
    Algorithm:                Core
    Integral Cache:           SAVE
    Schwarz Cutoff:          1E-12
    Fitting Condition:       1E-10

   => Auxiliary Basis Set <=

  Basis Set: (AUG-CC-PVQZ AUX)
    Blend: AUG-CC-PVQZ-JKFIT
    Number of shells: 92
    Number of basis functions: 368
    Number of Cartesian functions: 494
    Spherical Harmonics?: true
    Max angular momentum: 5

  Cached 100.0% of DFT collocation blocks in 0.154 [GiB].

  Minimum eigenvalue in the overlap matrix is 5.6311832539E-04.
  Reciprocal condition number of the overlap matrix is 1.3852340640E-04.
    Using symmetric orthogonalization.

  ==> Pre-Iterations <==

  SCF Guess: Superposition of Atomic Densities via on-the-fly atomic UHF (no occupation information).

   -------------------------
    Irrep   Nso     Nmo    
   -------------------------
     A        168     168 
   -------------------------
    Total     168     168
   -------------------------

  ==> Iterations <==

                           Total Energy        Delta E     RMS |[F,P]|

   @DF-RKS iter SAD:  -527.37236350552996   -5.27372e+02   0.00000e+00 
   @DF-RKS iter   1:  -527.38141830087261   -9.05480e-03   8.17298e-04 DIIS/ADIIS
   @DF-RKS iter   2:  -527.38347502988483   -2.05673e-03   4.85788e-04 DIIS/ADIIS
   @DF-RKS iter   3:  -527.38515562423675   -1.68059e-03   3.12569e-05 DIIS
   @DF-RKS iter   4:  -527.38517448406367   -1.88598e-05   2.36532e-07 DIIS
   @DF-RKS iter   5:  -527.38517450669656   -2.26329e-08   5.36638e-09 DIIS
   @DF-RKS iter   6:  -527.38517450434449    2.35207e-09   3.02107e-09 DIIS
  Energy and wave function converged.


  ==> Post-Iterations <==

   Electrons on quadrature grid:
      Ntotal   =   17.9999982204 ; deviation = -1.780e-06 

    Orbital Energies [Eh]
    ---------------------

    Doubly Occupied:                                                      

       1A   -115.442745     2A    -11.356037     3A     -8.879192  
       4A     -8.879192     5A     -8.879190     6A     -1.130097  
       7A     -0.578039     8A     -0.578037     9A     -0.578037  

    Virtual:                                                              

      10A     -0.081404    11A     -0.036756    12A     -0.034824  
      13A     -0.034824    14A      0.023951    15A      0.028486  
      16A      0.028486    17A      0.060356    18A      0.082664  
      19A      0.082705    20A      0.102476    21A      0.102476  
      22A      0.144321    23A      0.244609    24A      0.273673  
      25A      0.273673    26A      0.288557    27A      0.288558  
      28A      0.307404    29A      0.311687    30A      0.311687  
      31A      0.326977    32A      0.326977    33A      0.332806  
      34A      0.464119    35A      0.464146    36A      0.469594  
      37A      0.496280    38A      0.496280    39A      0.497030  
      40A      0.574264    41A      0.768846    42A      0.768886  
      43A      0.769029    44A      0.769029    45A      0.771778  
      46A      0.771778    47A      0.819676    48A      1.040566  
      49A      1.040578    50A      1.041615    51A      1.050381  
      52A      1.050381    53A      1.051088    54A      1.051088  
      55A      1.071732    56A      1.071732    57A      1.112256  
      58A      1.165906    59A      1.165907    60A      1.180642  
      61A      1.202357    62A      1.202357    63A      1.337965  
      64A      1.579814    65A      1.579814    66A      1.620378  
      67A      1.620382    68A      1.645928    69A      1.645928  
      70A      1.656675    71A      1.698104    72A      1.878549  
      73A      1.878555    74A      1.878555    75A      1.878559  
      76A      1.879293    77A      1.879296    78A      1.886750  
      79A      1.886750    80A      1.909689    81A      2.177873  
      82A      2.177873    83A      2.186281    84A      2.186391  
      85A      2.188150    86A      2.188150    87A      2.201778  
      88A      2.256024    89A      2.256030    90A      2.256359  
      91A      2.256359    92A      2.265483    93A      2.265511  
      94A      2.302449    95A      2.302449    96A      2.417253  
      97A      2.738234    98A      2.976122    99A      2.976157  
     100A      2.980654   101A      2.980654   102A      2.984296  
     103A      2.984296   104A      2.986077   105A      3.014635  
     106A      3.014635   107A      3.159189   108A      3.227713  
     109A      3.362412   110A      3.362428   111A      3.383936  
     112A      3.383936   113A      3.449666   114A      4.520533  
     115A      4.520647   116A      4.540503   117A      4.540503  
     118A      4.574866   119A      5.119527   120A      5.119599  
     121A      5.119610   122A      5.119610   123A      5.119928  
     124A      5.120495   125A      5.125693   126A      5.125693  
     127A      5.133309   128A      5.227063   129A      5.227063  
     130A      5.228503   131A      5.228631   132A      5.254585  
     133A      5.254585   134A      5.344503   135A      6.066044  
     136A      6.066044   137A      6.153949   138A      6.486777  
     139A      6.486906   140A      6.487306   141A      6.487306  
     142A      6.490211   143A      6.490238   144A      6.496409  
     145A      6.496409   146A      6.523359   147A      7.712748  
     148A      7.712782   149A      7.714470   150A      7.714470  
     151A      7.736146   152A      7.736146   153A      7.799050  
     154A      7.972872   155A      7.972872   156A      8.071495  
     157A      9.189539   158A      9.189552   159A      9.203081  
     160A      9.203081   161A      9.233828   162A      9.723494  
     163A     28.369356   164A     36.187844   165A     36.187844  
     166A     36.218386   167A     48.653090   168A    180.056071  

    Final Occupation by Irrep:
              A 
    DOCC [     9 ]
    NA   [     9 ]
    NB   [     9 ]

  @DF-RKS Final Energy:  -527.38517450434449

   => Energetics <=

    Nuclear Repulsion Energy =              0.0000000000000000
    One-Electron Energy =                -728.2893092580385428
    Two-Electron Energy =                 224.0937166858219314
    DFT Exchange-Correlation Energy =     -23.1895819321278900
    Empirical Dispersion Energy =           0.0000000000000000
    VV10 Nonlocal Energy =                  0.0000000000000000
    Total Energy =                       -527.3851745043444907

Computation Completed


Properties will be evaluated at   0.000000,   0.000000,   0.000000 [a0]

Properties computed using the SCF density matrix


 Multipole Moments:

 ------------------------------------------------------------------------------------
     Multipole            Electronic (a.u.)      Nuclear  (a.u.)        Total (a.u.)
 ------------------------------------------------------------------------------------

 L = 1.  Multiply by 2.5417464519 to convert [e a0] to [Debye]
 Dipole X            :         -0.0000000            0.0000000           -0.0000000
 Dipole Y            :         -0.0000000            0.0000000           -0.0000000
 Dipole Z            :         63.9509022          -63.9510193           -0.0001170
 Magnitude           :                                                    0.0001170

 ------------------------------------------------------------------------------------

*** tstop() called on Mac-mini.local at Tue Nov 18 11:21:55 2025
Module time:
	user time   =       1.19 seconds =       0.02 minutes
	system time =       0.05 seconds =       0.00 minutes
	total time  =          2 seconds =       0.03 minutes
Total time:
	user time   =       5.12 seconds =       0.09 minutes
	system time =       0.29 seconds =       0.00 minutes
	total time  =          6 seconds =       0.10 minutes

         ---------------------------------------------------------
               SAPT(DFT): Intermolecular Interaction Segment       

                   by Daniel G. A. Smith and Rob Parrish           
         ---------------------------------------------------------

  ==> Algorithm <==

   SAPT DFT Functional             PBE0
   Monomer A GRAC Shift        0.138799
   Monomer B GRAC Shift        0.138799
   Delta HF                        True
   JK Algorithm                      DF

  ==> Preparing SAPT Data Cache <== 

  ==> DiskDFJK: Density-Fitted J/K Matrices <==

    J tasked:                  Yes
    K tasked:                  Yes
    wK tasked:                  No
    OpenMP threads:              1
    Integrals threads:           1
    Memory [MiB]:              217
    Algorithm:                Core
    Integral Cache:           SAVE
    Schwarz Cutoff:          1E-12
    Fitting Condition:       1E-10

   => Auxiliary Basis Set <=

  Basis Set: (AUG-CC-PVQZ AUX)
    Blend: AUG-CC-PVQZ-JKFIT
    Number of shells: 92
    Number of basis functions: 368
    Number of Cartesian functions: 494
    Spherical Harmonics?: true
    Max angular momentum: 5


  ==> E10 Electostatics <== 

    Elst10,r                         -0.19632246 [mEh]

  ==> E10 Exchange <== 

    Exch10(S^2)                       0.66304903 [mEh]
    Exch10                            0.66345012 [mEh]

  ==> E20 Induction <== 

   => Uncoupled Induction <= 

    Ind20,u (A<-B)                   -0.11976788 [mEh]
    Ind20,u (A->B)                   -0.11976788 [mEh]
    Ind20,u                          -0.23953576 [mEh]
    Exch-Ind20,u (A<-B)               0.11740331 [mEh]
    Exch-Ind20,u (A->B)               0.11740331 [mEh]
    Exch-Ind20,u                      0.23480662 [mEh]

   => Coupled Induction <= 

   ---------------------------------------------------
              SAPT Coupled Induction Solver           
   ---------------------------------------------------
    Maxiter             =          20
    Convergence         =   1.000E-06
   ---------------------------------------------------
     Iter       (A<-B)           (B->A)      Time [s]
   ---------------------------------------------------
    Guess    2.868681e-02     2.868681e-02          0
        1    9.900698e-03     9.900698e-03          0
        2    5.643762e-04     5.643762e-04          1
        3    1.255659e-04     1.255659e-04          1
        4    3.046827e-05     3.046827e-05          2
        5    3.266788e-06     3.266788e-06          2
        6    1.038503e-07*    1.038503e-07*         2
   ---------------------------------------------------

    Ind20,r (A<-B)                   -0.12488043 [mEh]
    Ind20,r (A->B)                   -0.12488043 [mEh]
    Ind20,r                          -0.24976087 [mEh]
    Exch-Ind20,r (A<-B)               0.12253646 [mEh]
    Exch-Ind20,r (A->B)               0.12253646 [mEh]
    Exch-Ind20,r                      0.24507292 [mEh]
   => Loading Basis Set <=

    Name: (AUG-CC-PVQZ AUX)
    Role: RIFIT
    Keyword: DF_BASIS_MP2
    atoms 1-2 entry AR         line  1004 file /Users/basirbinrafiq/miniforge3/envs/p4fix/share/psi4/basis/aug-cc-pvqz-ri.gbs 



  ==> E20 Dispersion (CHF FDDS) <== 

   Legendre Points:          10
   Lambda Shift:          0.300
   Fxc Kernal:             ALDA
   (P|Fxc|Q) Thresh:  1.000e-06
  DFHelper Memory: AOs need 0.085 GiB; user supplied 0.391 GiB. 
  Using in-core AOs.

  ==> DFHelper <==
    NBF:                             168
    NAux:                            388
    Schwarz Cutoff:                1E-12
    Mask sparsity (%):                 6
    DFH Avail. Memory [GiB]:       0.391
    OpenMP threads:                    1
    Algorithm:                    DIRECT
    AO Core:                        True
    MO Core:                       False
    Hold Metric:                   False
    Metric Power:                  0.000
    Fitting Condition:             1E-12
    Q Shell Max:                      11


  DFHelper Memory: AOs need 0.090 GiB; user supplied 0.391 GiB. 
  Using in-core AOs.


   => Time Integration <= 

       Omega       Weight       Disp20,u         Disp20   time [s]
   2.269e+01    6.667e-02      3.892e-06      3.316e-06          0
   4.147e+00    1.495e-01      1.445e-04      1.167e-04          0
   1.572e+00    2.191e-01      8.082e-04      6.062e-04          0
   7.589e-01    2.693e-01      1.752e-03      1.204e-03          0
   4.049e-01    2.955e-01      1.993e-03      1.318e-03          0
   2.223e-01    2.955e-01      1.565e-03      1.033e-03          1
   1.186e-01    2.693e-01      1.045e-03      6.919e-04          1
   5.727e-02    2.191e-01      6.466e-04      4.288e-04          1
   2.170e-02    1.495e-01      3.617e-04      2.400e-04          1
   3.966e-03    6.667e-02      1.443e-04      9.579e-05          1

    Disp20,u                         -1.34720013 [mEh]
    Disp20                           -0.91319900 [mEh]

  ==> E20 Dispersion (MP2) <== 


    Disp20 (MP2)                     -1.34723211 [mEh]
    Exch-Disp20,u                     0.08118895 [mEh]
    Scaling Scheme                    FIXED
    Scaling Factor                    0.770
    Est. Exch-Disp20,r                0.06251549 [mEh]

   SAPT(DFT) Results
  ---------------------------------------------------------------------------------------------------------
    Electrostatics                   -0.19632246 [mEh]     -0.12319421 [kcal/mol]     -0.51544456 [kJ/mol]
      Elst1,r                        -0.19632246 [mEh]     -0.12319421 [kcal/mol]     -0.51544456 [kJ/mol]

    Exchange                          0.66345012 [mEh]      0.41632124 [kcal/mol]      1.74188806 [kJ/mol]
      Exch1                           0.66345012 [mEh]      0.41632124 [kcal/mol]      1.74188806 [kJ/mol]
      Exch1(S^2)                      0.66304903 [mEh]      0.41606955 [kcal/mol]      1.74083499 [kJ/mol]

    Induction                        -0.02908081 [mEh]     -0.01824849 [kcal/mol]     -0.07635166 [kJ/mol]
      Ind2,r                         -0.24976087 [mEh]     -0.15672731 [kcal/mol]     -0.65574707 [kJ/mol]
      Exch-Ind2,r                     0.24507292 [mEh]      0.15378558 [kcal/mol]      0.64343886 [kJ/mol]
      Induction (A<-B)               -0.00234397 [mEh]     -0.00147087 [kcal/mol]     -0.00615410 [kJ/mol]
      Induction (A->B)               -0.00234397 [mEh]     -0.00147087 [kcal/mol]     -0.00615410 [kJ/mol]
      delta HF,r (2)                 -0.02439286 [mEh]     -0.01530675 [kcal/mol]     -0.06404346 [kJ/mol]

    Dispersion                       -0.85068351 [mEh]     -0.53381196 [kcal/mol]     -2.23346925 [kJ/mol]
      Disp2,r                        -0.91319900 [mEh]     -0.57304102 [kcal/mol]     -2.39760364 [kJ/mol]
      Disp2,u                        -1.34723211 [mEh]     -0.84540092 [kcal/mol]     -3.53715743 [kJ/mol]
      Est. Exch-Disp2,r               0.06251549 [mEh]      0.03922906 [kcal/mol]      0.16413440 [kJ/mol]
      Exch-Disp2,u                    0.08118895 [mEh]      0.05094683 [kcal/mol]      0.21316155 [kJ/mol]

    Total SAPT(DFT)                  -0.41263666 [mEh]     -0.25893342 [kcal/mol]     -1.08337741 [kJ/mol]
  ---------------------------------------------------------------------------------------------------------

*** tstop() called on Mac-mini.local at Tue Nov 18 11:22:04 2025
Module time:
	user time   =       9.88 seconds =       0.16 minutes
	system time =       0.50 seconds =       0.01 minutes
	total time  =         11 seconds =       0.18 minutes
Total time:
	user time   =      13.81 seconds =       0.23 minutes
	system time =       0.74 seconds =       0.01 minutes
	total time  =         15 seconds =       0.25 minutes

    Psi4 stopped on: Tuesday, 18 November 2025 11:22AM
    Psi4 wall time for execution: 0:00:14.81

*** Psi4 exiting successfully. Buy a developer a beer!
