
    -----------------------------------------------------------------------
          Psi4: An Open-Source Ab Initio Electronic Structure Package
                               Psi4 1.9.1 release

                         Git: Rev {} zzzzzzz 


    D. G. A. Smith, L. A. Burns, A. C. Simmonett, R. M. Parrish,
    M. C. Schieber, R. Galvelis, P. Kraus, H. Kruse, R. Di Remigio,
    A. Alenaizan, A. M. James, S. Lehtola, J. P. Misiewicz, M. Scheurer,
    R. A. Shaw, J. B. Schriber, Y. Xie, Z. L. Glick, D. A. Sirianni,
    J. S. O'Brien, J. M. Waldrop, A. Kumar, E. G. Hohenstein,
    B. P. Pritchard, B. R. Brooks, H. F. Schaefer III, A. Yu. Sokolov,
    K. Patkowski, A. E. DePrince III, U. Bozkaya, R. A. King,
    F. A. Evangelista, J. M. Turney, T. D. Crawford, C. D. Sherrill,
    J. Chem. Phys. 152(18) 184108 (2020). https://doi.org/10.1063/5.0006002

                            Additional Code Authors
    E. T. Seidl, C. L. Janssen, E. F. Valeev, M. L. Leininger,
    J. F. Gonthier, R. M. Richard, H. R. McAlexander, M. Saitow, X. Wang,
    P. Verma, M. H. Lechner, A. Jiang, S. Behnle, A. G. Heide,
    M. F. Herbst, and D. L. Poole

             Previous Authors, Complete List of Code Contributors,
                       and Citations for Specific Modules
    https://github.com/psi4/psi4/blob/master/codemeta.json
    https://github.com/psi4/psi4/graphs/contributors
    http://psicode.org/psi4manual/master/introduction.html#citing-psifour

    -----------------------------------------------------------------------


    Psi4 started on: Tuesday, 18 November 2025 11:46AM

    Process ID: 23122
    Host:       Mac-mini.local
    PSIDATADIR: /Users/basirbinrafiq/miniforge3/envs/p4fix/share/psi4
    Memory:     500.0 MiB
    Threads:    1
    
  ==> Input File <==

--------------------------------------------------------------------------
molecule water_dimer {
    0 1
    O  -1.551007  -0.114520   0.000000
    H  -1.934259   0.762503   0.000000
    H  -0.599677   0.040712   0.000000
    --
    0 1
    O   1.350625   0.111469   0.000000
    H   1.680398  -0.373741  -0.758561
    H   1.680398  -0.373741   0.758561

    units angstrom
    no_reorient
    symmetry c1
}

set {
    basis                   aug-cc-pVQZ
    
    # Using the shift we calculated for Water on your Mac
    sapt_dft_grac_shift_a   0.12998988
    sapt_dft_grac_shift_b   0.12998988
}

energy('sapt(dft)')
--------------------------------------------------------------------------

Scratch directory: /tmp/

*** tstart() called on Mac-mini.local
*** at Tue Nov 18 11:46:08 2025


         ---------------------------------------------------------
                            SAPT(DFT) Procedure                    

                           by Daniel G. A. Smith                   
         ---------------------------------------------------------

Warning! The default value of SAPT_DFT_EXCH_DISP_SCALE_SCHEME has changed from DISP to FIXED. Please be careful comparing results with earlier versions. 

  ==> Algorithm <==

   SAPT DFT Functional             PBE0
   Monomer A GRAC Shift        0.129990
   Monomer B GRAC Shift        0.129990
   Delta HF                        True
   JK Algorithm                      DF

   Required computations:
     HF  (Dimer)
     HF  (Monomer A)
     HF  (Monomer B)
     DFT (Monomer A)
     DFT (Monomer B)

   => Libint2 <=

    Primary   basis highest AM E, G, H:  6, 6, 3
    Auxiliary basis highest AM E, G, H:  7, 7, 4
    Onebody   basis highest AM E, G, H:  -, -, -
    Solid Harmonics ordering:            Gaussian

*** tstart() called on Mac-mini.local
*** at Tue Nov 18 11:46:08 2025

   => Loading Basis Set <=

    Name: AUG-CC-PVQZ
    Role: ORBITAL
    Keyword: BASIS
    atoms 1, 4     entry O          line   423 file /Users/basirbinrafiq/miniforge3/envs/p4fix/share/psi4/basis/aug-cc-pvqz.gbs 
    atoms 2-3, 5-6 entry H          line    40 file /Users/basirbinrafiq/miniforge3/envs/p4fix/share/psi4/basis/aug-cc-pvqz.gbs 


         ---------------------------------------------------------
                         SAPT(DFT): delta HF Dimer                 
         ---------------------------------------------------------
                                   SCF
               by Justin Turney, Rob Parrish, Andy Simmonett
                          and Daniel G. A. Smith
                              RHF Reference
                        1 Threads,    500 MiB Core
         ---------------------------------------------------------

  ==> Geometry <==

    Molecular point group: c1
    Full point group: Cs

    Geometry (in Angstrom), charge = 0, multiplicity = 1:

       Center              X                  Y                   Z               Mass       
    ------------   -----------------  -----------------  -----------------  -----------------
         O           -1.485163346101    -0.114724564047     0.000000000000    15.994914619570
         H           -1.868415346101     0.762298435953     0.000000000000     1.007825032230
         H           -0.533833346101     0.040507435953     0.000000000000     1.007825032230
         O            1.416468653899     0.111264435953     0.000000000000    15.994914619570
         H            1.746241653899    -0.373945564047    -0.758561000000     1.007825032230
         H            1.746241653899    -0.373945564047     0.758561000000     1.007825032230

  Running in c1 symmetry.

  Rotational constants: A =      7.15151  B =      0.21457  C =      0.21447 [cm^-1]
  Rotational constants: A = 214396.91837  B =   6432.69061  C =   6429.61818 [MHz]
  Nuclear repulsion =   36.662847996863405

  Charge       = 0
  Multiplicity = 1
  Electrons    = 20
  Nalpha       = 10
  Nbeta        = 10

  ==> Algorithm <==

  SCF Algorithm Type is DF.
  DIIS enabled.
  MOM disabled.
  Fractional occupation disabled.
  Guess Type is SAD.
  Energy threshold   = 1.00e-08
  Density threshold  = 1.00e-08
  Integral threshold = 1.00e-12

  ==> Primary Basis <==

  Basis Set: AUG-CC-PVQZ
    Blend: AUG-CC-PVQZ
    Number of shells: 96
    Number of basis functions: 344
    Number of Cartesian functions: 430
    Spherical Harmonics?: true
    Max angular momentum: 4

   => Loading Basis Set <=

    Name: (AUG-CC-PVQZ AUX)
    Role: JKFIT
    Keyword: DF_BASIS_SCF
    atoms 1, 4     entry O          line   318 file /Users/basirbinrafiq/miniforge3/envs/p4fix/share/psi4/basis/aug-cc-pvqz-jkfit.gbs 
    atoms 2-3, 5-6 entry H          line    70 file /Users/basirbinrafiq/miniforge3/envs/p4fix/share/psi4/basis/aug-cc-pvqz-jkfit.gbs 

  ==> Integral Setup <==

  ==> DiskDFJK: Density-Fitted J/K Matrices <==

    J tasked:                  Yes
    K tasked:                  Yes
    wK tasked:                  No
    OpenMP threads:              1
    Integrals threads:           1
    Memory [MiB]:              375
    Algorithm:                Core
    Integral Cache:           SAVE
    Schwarz Cutoff:          1E-12
    Fitting Condition:       1E-10

   => Auxiliary Basis Set <=

  Basis Set: (AUG-CC-PVQZ AUX)
    Blend: AUG-CC-PVQZ-JKFIT
    Number of shells: 140
    Number of basis functions: 588
    Number of Cartesian functions: 800
    Spherical Harmonics?: true
    Max angular momentum: 5

  Minimum eigenvalue in the overlap matrix is 4.2457927812E-05.
  Reciprocal condition number of the overlap matrix is 4.1184768636E-06.
    Using symmetric orthogonalization.

  ==> Pre-Iterations <==

  SCF Guess: Superposition of Atomic Densities via on-the-fly atomic UHF (no occupation information).

   -------------------------
    Irrep   Nso     Nmo    
   -------------------------
     A        344     344 
   -------------------------
    Total     344     344
   -------------------------

  ==> Iterations <==

                           Total Energy        Delta E     RMS |[F,P]|

   @DF-RHF iter SAD:  -151.04785219040201   -1.51048e+02   0.00000e+00 
   @DF-RHF iter   1:  -151.98140609402526   -9.33554e-01   1.85802e-03 DIIS/ADIIS
   @DF-RHF iter   2:  -152.08317643778665   -1.01770e-01   1.21881e-03 DIIS/ADIIS
   @DF-RHF iter   3:  -152.13648546157646   -5.33090e-02   9.05141e-05 DIIS
   @DF-RHF iter   4:  -152.13729496354904   -8.09502e-04   2.16825e-05 DIIS
   @DF-RHF iter   5:  -152.13734364923820   -4.86857e-05   6.48998e-06 DIIS
   @DF-RHF iter   6:  -152.13734826438474   -4.61515e-06   2.99020e-06 DIIS
   @DF-RHF iter   7:  -152.13734890296337   -6.38579e-07   6.46861e-07 DIIS
   @DF-RHF iter   8:  -152.13734896654731   -6.35839e-08   1.11474e-07 DIIS
   @DF-RHF iter   9:  -152.13734896842823   -1.88092e-09   1.73214e-08 DIIS
   @DF-RHF iter  10:  -152.13734896847058   -4.23483e-11   4.36770e-09 DIIS
  Energy and wave function converged.


  ==> Post-Iterations <==

    Orbital Energies [Eh]
    ---------------------

    Doubly Occupied:                                                      

       1A    -20.589818     2A    -20.533812     3A     -1.379785  
       4A     -1.322828     5A     -0.742569     6A     -0.694947  
       7A     -0.614692     8A     -0.560994     9A     -0.531034  
      10A     -0.482176  

    Virtual:                                                              

      11A      0.020656    12A      0.041271    13A      0.042465  
      14A      0.068884    15A      0.100503    16A      0.122761  
      17A      0.138463    18A      0.141952    19A      0.152418  
      20A      0.160507    21A      0.175149    22A      0.180848  
      23A      0.194174    24A      0.206381    25A      0.223239  
      26A      0.227972    27A      0.248725    28A      0.251968  
      29A      0.293595    30A      0.306836    31A      0.312936  
      32A      0.341942    33A      0.346773    34A      0.366428  
      35A      0.369420    36A      0.380074    37A      0.418847  
      38A      0.462740    39A      0.474557    40A      0.483308  
      41A      0.515258    42A      0.530853    43A      0.554012  
      44A      0.567955    45A      0.568880    46A      0.595580  
      47A      0.599646    48A      0.608065    49A      0.618746  
      50A      0.635605    51A      0.642722    52A      0.671438  
      53A      0.674947    54A      0.696064    55A      0.710423  
      56A      0.724931    57A      0.732571    58A      0.745067  
      59A      0.769953    60A      0.771758    61A      0.779092  
      62A      0.785085    63A      0.786951    64A      0.799256  
      65A      0.818884    66A      0.830040    67A      0.849942  
      68A      0.862085    69A      0.897664    70A      0.929687  
      71A      0.949198    72A      0.961631    73A      0.980888  
      74A      0.985069    75A      1.084309    76A      1.114599  
      77A      1.126833    78A      1.145792    79A      1.154150  
      80A      1.215876    81A      1.219777    82A      1.230223  
      83A      1.254008    84A      1.311310    85A      1.356773  
      86A      1.431786    87A      1.435195    88A      1.467833  
      89A      1.478708    90A      1.529746    91A      1.532778  
      92A      1.552225    93A      1.563420    94A      1.575301  
      95A      1.580538    96A      1.607781    97A      1.620660  
      98A      1.639209    99A      1.656553   100A      1.657573  
     101A      1.672187   102A      1.676176   103A      1.707457  
     104A      1.721289   105A      1.730652   106A      1.740617  
     107A      1.753685   108A      1.766167   109A      1.781111  
     110A      1.790968   111A      1.796024   112A      1.808961  
     113A      1.828818   114A      1.848889   115A      1.868712  
     116A      1.881489   117A      1.887583   118A      1.908371  
     119A      1.924069   120A      1.941298   121A      1.958903  
     122A      1.971670   123A      1.974999   124A      2.006325  
     125A      2.015600   126A      2.035676   127A      2.062225  
     128A      2.108329   129A      2.110182   130A      2.142213  
     131A      2.151707   132A      2.166483   133A      2.230011  
     134A      2.234742   135A      2.261956   136A      2.321673  
     137A      2.334354   138A      2.349715   139A      2.351560  
     140A      2.376985   141A      2.430448   142A      2.447997  
     143A      2.539332   144A      2.581964   145A      2.587587  
     146A      2.699032   147A      2.801872   148A      2.859710  
     149A      2.897330   150A      2.940251   151A      3.009291  
     152A      3.017439   153A      3.048464   154A      3.052989  
     155A      3.080537   156A      3.114343   157A      3.116044  
     158A      3.172374   159A      3.182557   160A      3.225601  
     161A      3.291591   162A      3.297867   163A      3.330822  
     164A      3.366657   165A      3.403901   166A      3.479614  
     167A      3.511977   168A      3.553218   169A      3.599940  
     170A      3.638000   171A      3.664802   172A      3.679343  
     173A      3.729813   174A      3.757085   175A      3.762568  
     176A      3.773762   177A      3.816824   178A      3.834131  
     179A      3.886053   180A      3.967599   181A      4.025035  
     182A      4.074116   183A      4.171141   184A      4.185414  
     185A      4.212029   186A      4.250973   187A      4.262288  
     188A      4.295358   189A      4.311089   190A      4.337570  
     191A      4.384572   192A      4.397332   193A      4.419295  
     194A      4.480454   195A      4.511125   196A      4.580099  
     197A      4.659943   198A      4.674854   199A      4.705847  
     200A      4.761186   201A      4.767591   202A      4.815871  
     203A      4.844523   204A      4.846982   205A      4.875864  
     206A      4.913540   207A      4.930026   208A      5.026931  
     209A      5.045362   210A      5.082353   211A      5.119575  
     212A      5.202314   213A      5.298639   214A      5.312671  
     215A      5.380898   216A      5.437235   217A      5.453210  
     218A      5.556280   219A      5.612523   220A      5.667594  
     221A      5.718067   222A      5.860537   223A      5.895451  
     224A      5.982557   225A      6.038478   226A      6.101750  
     227A      6.127349   228A      6.211179   229A      6.336338  
     230A      6.490684   231A      6.871402   232A      6.884868  
     233A      6.887472   234A      6.946138   235A      6.950648  
     236A      6.962865   237A      6.996940   238A      7.082602  
     239A      7.714843   240A      7.782416   241A      7.814597  
     242A      7.814664   243A      7.835546   244A      7.868577  
     245A      7.875505   246A      7.911680   247A      7.920910  
     248A      7.956871   249A      7.964158   250A      8.001649  
     251A      8.008134   252A      8.032464   253A      8.071092  
     254A      8.115406   255A      8.248260   256A      8.272179  
     257A      8.305576   258A      8.382090   259A      8.624724  
     260A      8.679657   261A      8.707235   262A      8.727392  
     263A      8.731460   264A      8.744103   265A      8.805453  
     266A      8.841029   267A      8.918074   268A      8.957795  
     269A      9.011197   270A      9.019098   271A      9.118589  
     272A      9.149278   273A      9.200693   274A      9.231726  
     275A      9.343871   276A      9.393719   277A      9.640627  
     278A      9.796571   279A      9.937192   280A      9.938413  
     281A      9.964143   282A     10.000464   283A     10.028107  
     284A     10.062264   285A     10.170724   286A     10.226222  
     287A     10.368876   288A     10.425184   289A     10.490920  
     290A     10.579793   291A     10.858577   292A     10.923401  
     293A     11.073779   294A     11.131173   295A     11.154204  
     296A     11.156292   297A     11.256460   298A     11.330026  
     299A     11.369124   300A     11.396821   301A     11.478417  
     302A     11.487272   303A     11.537901   304A     11.712321  
     305A     11.750436   306A     11.812403   307A     11.874140  
     308A     11.905324   309A     11.958239   310A     12.076523  
     311A     12.128068   312A     12.205273   313A     12.291280  
     314A     12.325658   315A     12.338598   316A     12.345329  
     317A     12.630378   318A     12.732069   319A     12.771314  
     320A     12.866285   321A     12.887961   322A     12.905794  
     323A     12.932930   324A     12.988718   325A     13.172371  
     326A     13.292898   327A     13.991725   328A     14.048132  
     329A     14.201340   330A     14.227205   331A     14.539918  
     332A     14.572294   333A     14.797923   334A     14.873880  
     335A     14.891697   336A     14.987535   337A     15.285430  
     338A     15.326738   339A     16.959106   340A     17.037800  
     341A     17.370881   342A     17.422531   343A     45.686251  
     344A     46.145763  

    Final Occupation by Irrep:
              A 
    DOCC [    10 ]
    NA   [    10 ]
    NB   [    10 ]

  @DF-RHF Final Energy:  -152.13734896847058

   => Energetics <=

    Nuclear Repulsion Energy =             36.6628479968634053
    One-Electron Energy =                -282.6950805369337445
    Two-Electron Energy =                  93.8948835715997632
    Total Energy =                       -152.1373489684705760

Computation Completed


Properties will be evaluated at   0.000000,   0.000000,   0.000000 [a0]

Properties computed using the SCF density matrix


 Multipole Moments:

 ------------------------------------------------------------------------------------
     Multipole            Electronic (a.u.)      Nuclear  (a.u.)        Total (a.u.)
 ------------------------------------------------------------------------------------

 L = 1.  Multiply by 2.5417464519 to convert [e a0] to [Debye]
 Dipole X            :          0.0109523            1.0217316            1.0326839
 Dipole Y            :         -0.0191591            0.0514643            0.0323052
 Dipole Z            :          0.0000000            0.0000000            0.0000000
 Magnitude           :                                                    1.0331891

 ------------------------------------------------------------------------------------

*** tstop() called on Mac-mini.local at Tue Nov 18 11:46:12 2025
Module time:
	user time   =       3.67 seconds =       0.06 minutes
	system time =       0.18 seconds =       0.00 minutes
	total time  =          4 seconds =       0.07 minutes
Total time:
	user time   =       3.68 seconds =       0.06 minutes
	system time =       0.18 seconds =       0.00 minutes
	total time  =          4 seconds =       0.07 minutes
   => Libint2 <=

    Primary   basis highest AM E, G, H:  6, 6, 3
    Auxiliary basis highest AM E, G, H:  7, 7, 4
    Onebody   basis highest AM E, G, H:  -, -, -
    Solid Harmonics ordering:            Gaussian

*** tstart() called on Mac-mini.local
*** at Tue Nov 18 11:46:12 2025

   => Loading Basis Set <=

    Name: AUG-CC-PVQZ
    Role: ORBITAL
    Keyword: BASIS
    atoms 1, 4     entry O          line   423 file /Users/basirbinrafiq/miniforge3/envs/p4fix/share/psi4/basis/aug-cc-pvqz.gbs 
    atoms 2-3, 5-6 entry H          line    40 file /Users/basirbinrafiq/miniforge3/envs/p4fix/share/psi4/basis/aug-cc-pvqz.gbs 


         ---------------------------------------------------------
                       SAPT(DFT): delta HF Monomer A               
         ---------------------------------------------------------
                                   SCF
               by Justin Turney, Rob Parrish, Andy Simmonett
                          and Daniel G. A. Smith
                              RHF Reference
                        1 Threads,    500 MiB Core
         ---------------------------------------------------------

  ==> Geometry <==

    Molecular point group: c1
    Full point group: Cs

    Geometry (in Angstrom), charge = 0, multiplicity = 1:

       Center              X                  Y                   Z               Mass       
    ------------   -----------------  -----------------  -----------------  -----------------
         O           -1.485163346101    -0.114724564047     0.000000000000    15.994914619570
         H           -1.868415346101     0.762298435953     0.000000000000     1.007825032230
         H           -0.533833346101     0.040507435953     0.000000000000     1.007825032230
      Gh(O)           1.416468653899     0.111264435953     0.000000000000    15.994914619570
      Gh(H)           1.746241653899    -0.373945564047    -0.758561000000     1.007825032230
      Gh(H)           1.746241653899    -0.373945564047     0.758561000000     1.007825032230

  Running in c1 symmetry.

  Rotational constants: A =      7.15151  B =      0.21457  C =      0.21447 [cm^-1]
  Rotational constants: A = 214396.91837  B =   6432.69061  C =   6429.61818 [MHz]
  Nuclear repulsion =    9.163830181985562

  Charge       = 0
  Multiplicity = 1
  Electrons    = 10
  Nalpha       = 5
  Nbeta        = 5

  ==> Algorithm <==

  SCF Algorithm Type is DF.
  DIIS enabled.
  MOM disabled.
  Fractional occupation disabled.
  Guess Type is SAD.
  Energy threshold   = 1.00e-08
  Density threshold  = 1.00e-08
  Integral threshold = 1.00e-12

  ==> Primary Basis <==

  Basis Set: AUG-CC-PVQZ
    Blend: AUG-CC-PVQZ
    Number of shells: 96
    Number of basis functions: 344
    Number of Cartesian functions: 430
    Spherical Harmonics?: true
    Max angular momentum: 4

   => Loading Basis Set <=

    Name: (AUG-CC-PVQZ AUX)
    Role: JKFIT
    Keyword: DF_BASIS_SCF
    atoms 1, 4     entry O          line   318 file /Users/basirbinrafiq/miniforge3/envs/p4fix/share/psi4/basis/aug-cc-pvqz-jkfit.gbs 
    atoms 2-3, 5-6 entry H          line    70 file /Users/basirbinrafiq/miniforge3/envs/p4fix/share/psi4/basis/aug-cc-pvqz-jkfit.gbs 

  ==> Integral Setup <==

  ==> DiskDFJK: Density-Fitted J/K Matrices <==

    J tasked:                  Yes
    K tasked:                  Yes
    wK tasked:                  No
    OpenMP threads:              1
    Integrals threads:           1
    Memory [MiB]:              375
    Algorithm:                Core
    Integral Cache:           SAVE
    Schwarz Cutoff:          1E-12
    Fitting Condition:       1E-10

   => Auxiliary Basis Set <=

  Basis Set: (AUG-CC-PVQZ AUX)
    Blend: AUG-CC-PVQZ-JKFIT
    Number of shells: 140
    Number of basis functions: 588
    Number of Cartesian functions: 800
    Spherical Harmonics?: true
    Max angular momentum: 5

  Minimum eigenvalue in the overlap matrix is 4.2457927812E-05.
  Reciprocal condition number of the overlap matrix is 4.1184768636E-06.
    Using symmetric orthogonalization.

  ==> Pre-Iterations <==

  SCF Guess: Superposition of Atomic Densities via on-the-fly atomic UHF (no occupation information).

   -------------------------
    Irrep   Nso     Nmo    
   -------------------------
     A        344     344 
   -------------------------
    Total     344     344
   -------------------------

  ==> Iterations <==

                           Total Energy        Delta E     RMS |[F,P]|

   @DF-RHF iter SAD:   -75.47960276882591   -7.54796e+01   0.00000e+00 
   @DF-RHF iter   1:   -75.98102675613090   -5.01424e-01   1.36455e-03 DIIS/ADIIS
   @DF-RHF iter   2:   -76.03359204400915   -5.25653e-02   9.33344e-04 DIIS/ADIIS
   @DF-RHF iter   3:   -76.06530815476194   -3.17161e-02   6.36854e-05 DIIS
   @DF-RHF iter   4:   -76.06570138351121   -3.93229e-04   1.55806e-05 DIIS
   @DF-RHF iter   5:   -76.06572676232176   -2.53788e-05   3.53403e-06 DIIS
   @DF-RHF iter   6:   -76.06572885420613   -2.09188e-06   7.95667e-07 DIIS
   @DF-RHF iter   7:   -76.06572897190424   -1.17698e-07   1.48587e-07 DIIS
   @DF-RHF iter   8:   -76.06572897550883   -3.60460e-09   2.39013e-08 DIIS
   @DF-RHF iter   9:   -76.06572897558435   -7.55165e-11   5.75328e-09 DIIS
  Energy and wave function converged.


  ==> Post-Iterations <==

    Orbital Energies [Eh]
    ---------------------

    Doubly Occupied:                                                      

       1A    -20.565383     2A     -1.351315     3A     -0.715672  
       4A     -0.584696     5A     -0.510270  

    Virtual:                                                              

       6A      0.019970     7A      0.038632     8A      0.045680  
       9A      0.066585    10A      0.085732    11A      0.109648  
      12A      0.127210    13A      0.134460    14A      0.147585  
      15A      0.153527    16A      0.175162    17A      0.186535  
      18A      0.190706    19A      0.208447    20A      0.221526  
      21A      0.233027    22A      0.240987    23A      0.252211  
      24A      0.267612    25A      0.297168    26A      0.302772  
      27A      0.308946    28A      0.331054    29A      0.334386  
      30A      0.369690    31A      0.370066    32A      0.395460  
      33A      0.463140    34A      0.481673    35A      0.518774  
      36A      0.528091    37A      0.530084    38A      0.550843  
      39A      0.555628    40A      0.567339    41A      0.588802  
      42A      0.595829    43A      0.615307    44A      0.628067  
      45A      0.643884    46A      0.649995    47A      0.655666  
      48A      0.668870    49A      0.675991    50A      0.688391  
      51A      0.718822    52A      0.719635    53A      0.731593  
      54A      0.733039    55A      0.751887    56A      0.765342  
      57A      0.793223    58A      0.796998    59A      0.805339  
      60A      0.811554    61A      0.835847    62A      0.844058  
      63A      0.873838    64A      0.876401    65A      0.919669  
      66A      0.938193    67A      0.958437    68A      0.979999  
      69A      0.980010    70A      1.067433    71A      1.093866  
      72A      1.119421    73A      1.166252    74A      1.193386  
      75A      1.216849    76A      1.224441    77A      1.281354  
      78A      1.315368    79A      1.332522    80A      1.352836  
      81A      1.378495    82A      1.413878    83A      1.425543  
      84A      1.473329    85A      1.479045    86A      1.524968  
      87A      1.551653    88A      1.554590    89A      1.572293  
      90A      1.597528    91A      1.603913    92A      1.622887  
      93A      1.631780    94A      1.640120    95A      1.652807  
      96A      1.655813    97A      1.672134    98A      1.683266  
      99A      1.709564   100A      1.738709   101A      1.753821  
     102A      1.766087   103A      1.775859   104A      1.792810  
     105A      1.815054   106A      1.825841   107A      1.837234  
     108A      1.838258   109A      1.872655   110A      1.884291  
     111A      1.901855   112A      1.906561   113A      1.915485  
     114A      1.925883   115A      1.963471   116A      1.989599  
     117A      1.989652   118A      2.007851   119A      2.025441  
     120A      2.036959   121A      2.075534   122A      2.096246  
     123A      2.122189   124A      2.124752   125A      2.152894  
     126A      2.169647   127A      2.236770   128A      2.238415  
     129A      2.258511   130A      2.284620   131A      2.298203  
     132A      2.352737   133A      2.375572   134A      2.380507  
     135A      2.413561   136A      2.449790   137A      2.541769  
     138A      2.551036   139A      2.574861   140A      2.604952  
     141A      2.618707   142A      2.679520   143A      2.685268  
     144A      2.817184   145A      2.880922   146A      2.942160  
     147A      2.977564   148A      2.993224   149A      3.055003  
     150A      3.067946   151A      3.110803   152A      3.170346  
     153A      3.178145   154A      3.266210   155A      3.295326  
     156A      3.342214   157A      3.384835   158A      3.395265  
     159A      3.399470   160A      3.466623   161A      3.521638  
     162A      3.532470   163A      3.609043   164A      3.637923  
     165A      3.671609   166A      3.679868   167A      3.744355  
     168A      3.764405   169A      3.764756   170A      3.774492  
     171A      3.811185   172A      3.871565   173A      3.933112  
     174A      4.006942   175A      4.029492   176A      4.095159  
     177A      4.145873   178A      4.168107   179A      4.194281  
     180A      4.202751   181A      4.256305   182A      4.259980  
     183A      4.261867   184A      4.313231   185A      4.332756  
     186A      4.392204   187A      4.403696   188A      4.422958  
     189A      4.462339   190A      4.563610   191A      4.591768  
     192A      4.661772   193A      4.753830   194A      4.764445  
     195A      4.803092   196A      4.860914   197A      4.862326  
     198A      4.892322   199A      4.925626   200A      4.998333  
     201A      5.034943   202A      5.081709   203A      5.088517  
     204A      5.135313   205A      5.166917   206A      5.194499  
     207A      5.231628   208A      5.323464   209A      5.353318  
     210A      5.530383   211A      5.600138   212A      5.648988  
     213A      5.674042   214A      5.738157   215A      5.783705  
     216A      5.830068   217A      5.975020   218A      6.084719  
     219A      6.166992   220A      6.289698   221A      6.377950  
     222A      6.499808   223A      6.513054   224A      6.537742  
     225A      6.851967   226A      6.893458   227A      6.899508  
     228A      6.915260   229A      6.916932   230A      6.970297  
     231A      7.089741   232A      7.165762   233A      7.199236  
     234A      7.204763   235A      7.254803   236A      7.411634  
     237A      7.422139   238A      7.790661   239A      7.793397  
     240A      7.814163   241A      7.866953   242A      7.925930  
     243A      7.970146   244A      8.026034   245A      8.115506  
     246A      8.159386   247A      8.204829   248A      8.222488  
     249A      8.326575   250A      8.352035   251A      8.448115  
     252A      8.535630   253A      8.537258   254A      8.568840  
     255A      8.646387   256A      8.713447   257A      8.721467  
     258A      8.735881   259A      8.747579   260A      8.800581  
     261A      8.890066   262A      8.953237   263A      9.046129  
     264A      9.087883   265A      9.235512   266A      9.237064  
     267A      9.316882   268A      9.394363   269A      9.613943  
     270A      9.669787   271A      9.682711   272A      9.779948  
     273A      9.812162   274A      9.874502   275A      9.923820  
     276A      9.992259   277A     10.042511   278A     10.053140  
     279A     10.069027   280A     10.148844   281A     10.406325  
     282A     10.579181   283A     10.605581   284A     10.832260  
     285A     10.873183   286A     10.953611   287A     10.998882  
     288A     11.061187   289A     11.067915   290A     11.113684  
     291A     11.284255   292A     11.344110   293A     11.378646  
     294A     11.414707   295A     11.460014   296A     11.588637  
     297A     11.772480   298A     11.835479   299A     11.924910  
     300A     12.037154   301A     12.075455   302A     12.197318  
     303A     12.285486   304A     12.305129   305A     12.406413  
     306A     12.477561   307A     12.720786   308A     12.788613  
     309A     12.795792   310A     12.875344   311A     12.976133  
     312A     13.030183   313A     13.236636   314A     13.301516  
     315A     13.530052   316A     14.020751   317A     14.200487  
     318A     14.310415   319A     14.335717   320A     14.459036  
     321A     14.544701   322A     14.619326   323A     14.688899  
     324A     14.844382   325A     14.879049   326A     14.953273  
     327A     15.084727   328A     15.298981   329A     15.347059  
     330A     16.056362   331A     16.592973   332A     16.981450  
     333A     17.384413   334A     18.393455   335A     18.512519  
     336A     18.675372   337A     19.177490   338A     20.443109  
     339A     22.569214   340A     22.863959   341A     24.919259  
     342A     26.224969   343A     45.671940   344A    125.395649  

    Final Occupation by Irrep:
              A 
    DOCC [     5 ]
    NA   [     5 ]
    NB   [     5 ]

  @DF-RHF Final Energy:   -76.06572897558435

   => Energetics <=

    Nuclear Repulsion Energy =              9.1638301819855617
    One-Electron Energy =                -123.0044426610813133
    Two-Electron Energy =                  37.7748835035114041
    Total Energy =                        -76.0657289755843493

Computation Completed


Properties will be evaluated at   0.000000,   0.000000,   0.000000 [a0]

Properties computed using the SCF density matrix


 Multipole Moments:

 ------------------------------------------------------------------------------------
     Multipole            Electronic (a.u.)      Nuclear  (a.u.)        Total (a.u.)
 ------------------------------------------------------------------------------------

 L = 1.  Multiply by 2.5417464519 to convert [e a0] to [Debye]
 Dipole X            :         27.3677719          -26.9920079            0.3757640
 Dipole Y            :          0.9024509           -0.2173008            0.6851501
 Dipole Z            :          0.0000000            0.0000000            0.0000000
 Magnitude           :                                                    0.7814277

 ------------------------------------------------------------------------------------

*** tstop() called on Mac-mini.local at Tue Nov 18 11:46:15 2025
Module time:
	user time   =       3.15 seconds =       0.05 minutes
	system time =       0.12 seconds =       0.00 minutes
	total time  =          3 seconds =       0.05 minutes
Total time:
	user time   =       6.83 seconds =       0.11 minutes
	system time =       0.30 seconds =       0.01 minutes
	total time  =          7 seconds =       0.12 minutes
   => Libint2 <=

    Primary   basis highest AM E, G, H:  6, 6, 3
    Auxiliary basis highest AM E, G, H:  7, 7, 4
    Onebody   basis highest AM E, G, H:  -, -, -
    Solid Harmonics ordering:            Gaussian

*** tstart() called on Mac-mini.local
*** at Tue Nov 18 11:46:15 2025

   => Loading Basis Set <=

    Name: AUG-CC-PVQZ
    Role: ORBITAL
    Keyword: BASIS
    atoms 1, 4     entry O          line   423 file /Users/basirbinrafiq/miniforge3/envs/p4fix/share/psi4/basis/aug-cc-pvqz.gbs 
    atoms 2-3, 5-6 entry H          line    40 file /Users/basirbinrafiq/miniforge3/envs/p4fix/share/psi4/basis/aug-cc-pvqz.gbs 


         ---------------------------------------------------------
                       SAPT(DFT): delta HF Monomer B               
         ---------------------------------------------------------
                                   SCF
               by Justin Turney, Rob Parrish, Andy Simmonett
                          and Daniel G. A. Smith
                              RHF Reference
                        1 Threads,    500 MiB Core
         ---------------------------------------------------------

  ==> Geometry <==

    Molecular point group: c1
    Full point group: Cs

    Geometry (in Angstrom), charge = 0, multiplicity = 1:

       Center              X                  Y                   Z               Mass       
    ------------   -----------------  -----------------  -----------------  -----------------
      Gh(O)          -1.485163346101    -0.114724564047     0.000000000000    15.994914619570
      Gh(H)          -1.868415346101     0.762298435953     0.000000000000     1.007825032230
      Gh(H)          -0.533833346101     0.040507435953     0.000000000000     1.007825032230
         O            1.416468653899     0.111264435953     0.000000000000    15.994914619570
         H            1.746241653899    -0.373945564047    -0.758561000000     1.007825032230
         H            1.746241653899    -0.373945564047     0.758561000000     1.007825032230

  Running in c1 symmetry.

  Rotational constants: A =      7.15151  B =      0.21457  C =      0.21447 [cm^-1]
  Rotational constants: A = 214396.91837  B =   6432.69061  C =   6429.61818 [MHz]
  Nuclear repulsion =    9.178038940979064

  Charge       = 0
  Multiplicity = 1
  Electrons    = 10
  Nalpha       = 5
  Nbeta        = 5

  ==> Algorithm <==

  SCF Algorithm Type is DF.
  DIIS enabled.
  MOM disabled.
  Fractional occupation disabled.
  Guess Type is SAD.
  Energy threshold   = 1.00e-08
  Density threshold  = 1.00e-08
  Integral threshold = 1.00e-12

  ==> Primary Basis <==

  Basis Set: AUG-CC-PVQZ
    Blend: AUG-CC-PVQZ
    Number of shells: 96
    Number of basis functions: 344
    Number of Cartesian functions: 430
    Spherical Harmonics?: true
    Max angular momentum: 4

   => Loading Basis Set <=

    Name: (AUG-CC-PVQZ AUX)
    Role: JKFIT
    Keyword: DF_BASIS_SCF
    atoms 1, 4     entry O          line   318 file /Users/basirbinrafiq/miniforge3/envs/p4fix/share/psi4/basis/aug-cc-pvqz-jkfit.gbs 
    atoms 2-3, 5-6 entry H          line    70 file /Users/basirbinrafiq/miniforge3/envs/p4fix/share/psi4/basis/aug-cc-pvqz-jkfit.gbs 

  ==> Integral Setup <==

  ==> DiskDFJK: Density-Fitted J/K Matrices <==

    J tasked:                  Yes
    K tasked:                  Yes
    wK tasked:                  No
    OpenMP threads:              1
    Integrals threads:           1
    Memory [MiB]:              375
    Algorithm:                Core
    Integral Cache:           SAVE
    Schwarz Cutoff:          1E-12
    Fitting Condition:       1E-10

   => Auxiliary Basis Set <=

  Basis Set: (AUG-CC-PVQZ AUX)
    Blend: AUG-CC-PVQZ-JKFIT
    Number of shells: 140
    Number of basis functions: 588
    Number of Cartesian functions: 800
    Spherical Harmonics?: true
    Max angular momentum: 5

  Minimum eigenvalue in the overlap matrix is 4.2457927812E-05.
  Reciprocal condition number of the overlap matrix is 4.1184768636E-06.
    Using symmetric orthogonalization.

  ==> Pre-Iterations <==

  SCF Guess: Superposition of Atomic Densities via on-the-fly atomic UHF (no occupation information).

   -------------------------
    Irrep   Nso     Nmo    
   -------------------------
     A        344     344 
   -------------------------
    Total     344     344
   -------------------------

  ==> Iterations <==

                           Total Energy        Delta E     RMS |[F,P]|

   @DF-RHF iter SAD:   -75.48117692546903   -7.54812e+01   0.00000e+00 
   @DF-RHF iter   1:   -75.98129780078682   -5.00121e-01   1.36494e-03 DIIS/ADIIS
   @DF-RHF iter   2:   -76.03390862594007   -5.26108e-02   9.31791e-04 DIIS/ADIIS
   @DF-RHF iter   3:   -76.06548798709633   -3.15794e-02   6.35689e-05 DIIS
   @DF-RHF iter   4:   -76.06587925326598   -3.91266e-04   1.54963e-05 DIIS
   @DF-RHF iter   5:   -76.06590427959017   -2.50263e-05   3.50724e-06 DIIS
   @DF-RHF iter   6:   -76.06590633634562   -2.05676e-06   7.90072e-07 DIIS
   @DF-RHF iter   7:   -76.06590645235666   -1.16011e-07   1.48197e-07 DIIS
   @DF-RHF iter   8:   -76.06590645595003   -3.59337e-09   2.38295e-08 DIIS
   @DF-RHF iter   9:   -76.06590645602574   -7.57154e-11   5.71743e-09 DIIS
  Energy and wave function converged.


  ==> Post-Iterations <==

    Orbital Energies [Eh]
    ---------------------

    Doubly Occupied:                                                      

       1A    -20.564996     2A     -1.351917     3A     -0.716932  
       4A     -0.584537     5A     -0.510326  

    Virtual:                                                              

       6A      0.023923     7A      0.041320     8A      0.042889  
       9A      0.061822    10A      0.103886    11A      0.121529  
      12A      0.123472    13A      0.137415    14A      0.142632  
      15A      0.158395    16A      0.174098    17A      0.182769  
      18A      0.193827    19A      0.200788    20A      0.229347  
      21A      0.234822    22A      0.245194    23A      0.255390  
      24A      0.298832    25A      0.304252    26A      0.314085  
      27A      0.322953    28A      0.336318    29A      0.356241  
      30A      0.368823    31A      0.390760    32A      0.397948  
      33A      0.432813    34A      0.477236    35A      0.511464  
      36A      0.532373    37A      0.538618    38A      0.553492  
      39A      0.564367    40A      0.577488    41A      0.597887  
      42A      0.609178    43A      0.622334    44A      0.633203  
      45A      0.641623    46A      0.658462    47A      0.675001  
      48A      0.678441    49A      0.701528    50A      0.705775  
      51A      0.714916    52A      0.732619    53A      0.738226  
      54A      0.741826    55A      0.750442    56A      0.778473  
      57A      0.793104    58A      0.793796    59A      0.807403  
      60A      0.816262    61A      0.841006    62A      0.843194  
      63A      0.870947    64A      0.890924    65A      0.913148  
      66A      0.957934    67A      0.965658    68A      1.003393  
      69A      1.019065    70A      1.101688    71A      1.123331  
      72A      1.146277    73A      1.162380    74A      1.183724  
      75A      1.236592    76A      1.270340    77A      1.301728  
      78A      1.320825    79A      1.359762    80A      1.386947  
      81A      1.392239    82A      1.438401    83A      1.448738  
      84A      1.457328    85A      1.512828    86A      1.552666  
      87A      1.553917    88A      1.573054    89A      1.594781  
      90A      1.601026    91A      1.604613    92A      1.613476  
      93A      1.639000    94A      1.654795    95A      1.657496  
      96A      1.673801    97A      1.687593    98A      1.698353  
      99A      1.737658   100A      1.746063   101A      1.747996  
     102A      1.760712   103A      1.766836   104A      1.821437  
     105A      1.826327   106A      1.834511   107A      1.848711  
     108A      1.858257   109A      1.861475   110A      1.884779  
     111A      1.904360   112A      1.913369   113A      1.928312  
     114A      1.937871   115A      1.956805   116A      1.990762  
     117A      1.994363   118A      2.006356   119A      2.028980  
     120A      2.046002   121A      2.076549   122A      2.099858  
     123A      2.146084   124A      2.155577   125A      2.183979  
     126A      2.215354   127A      2.219348   128A      2.270035  
     129A      2.297418   130A      2.318024   131A      2.339591  
     132A      2.351450   133A      2.376471   134A      2.414466  
     135A      2.432517   136A      2.447026   137A      2.470867  
     138A      2.530097   139A      2.543772   140A      2.601621  
     141A      2.649630   142A      2.795396   143A      2.812777  
     144A      2.816854   145A      2.926307   146A      3.019638  
     147A      3.037608   148A      3.063692   149A      3.068287  
     150A      3.090044   151A      3.114150   152A      3.186502  
     153A      3.201006   154A      3.252639   155A      3.293723  
     156A      3.304535   157A      3.343758   158A      3.355786  
     159A      3.441215   160A      3.501545   161A      3.523284  
     162A      3.573874   163A      3.590088   164A      3.641498  
     165A      3.691495   166A      3.740784   167A      3.748303  
     168A      3.781854   169A      3.811472   170A      3.834547  
     171A      3.842075   172A      3.889607   173A      3.919489  
     174A      3.967357   175A      3.975515   176A      4.084019  
     177A      4.107684   178A      4.196575   179A      4.284533  
     180A      4.294457   181A      4.311475   182A      4.335284  
     183A      4.337467   184A      4.353958   185A      4.404982  
     186A      4.460045   187A      4.475007   188A      4.533902  
     189A      4.537954   190A      4.619514   191A      4.629300  
     192A      4.692764   193A      4.704912   194A      4.738870  
     195A      4.797962   196A      4.826958   197A      4.889190  
     198A      4.911626   199A      4.939158   200A      4.940759  
     201A      4.999343   202A      5.062565   203A      5.149812  
     204A      5.188354   205A      5.251454   206A      5.269009  
     207A      5.339805   208A      5.395578   209A      5.417257  
     210A      5.422801   211A      5.552950   212A      5.585466  
     213A      5.613032   214A      5.776568   215A      5.847189  
     216A      5.923589   217A      5.961760   218A      6.058658  
     219A      6.066736   220A      6.155724   221A      6.364304  
     222A      6.388885   223A      6.604896   224A      6.622881  
     225A      6.907308   226A      6.923278   227A      6.930122  
     228A      6.974154   229A      7.003898   230A      7.065523  
     231A      7.137800   232A      7.157446   233A      7.201504  
     234A      7.225926   235A      7.278683   236A      7.344058  
     237A      7.549985   238A      7.737534   239A      7.834365  
     240A      7.885050   241A      7.933253   242A      7.943433  
     243A      7.976880   244A      8.011818   245A      8.102884  
     246A      8.164114   247A      8.209655   248A      8.279456  
     249A      8.343142   250A      8.372587   251A      8.462311  
     252A      8.556131   253A      8.561116   254A      8.612928  
     255A      8.654462   256A      8.672293   257A      8.715244  
     258A      8.781015   259A      8.845318   260A      8.905540  
     261A      8.959194   262A      9.062996   263A      9.106843  
     264A      9.155980   265A      9.179341   266A      9.316972  
     267A      9.353459   268A      9.427512   269A      9.444517  
     270A      9.540887   271A      9.653673   272A      9.662772  
     273A      9.767375   274A      9.960205   275A      9.962272  
     276A      9.988216   277A      9.996529   278A     10.084964  
     279A     10.201272   280A     10.265117   281A     10.395566  
     282A     10.498357   283A     10.780344   284A     10.896983  
     285A     10.927449   286A     10.955063   287A     11.019374  
     288A     11.059306   289A     11.188377   290A     11.253414  
     291A     11.314367   292A     11.392754   293A     11.503541  
     294A     11.537003   295A     11.591327   296A     11.816590  
     297A     11.835957   298A     11.855748   299A     11.982054  
     300A     12.077006   301A     12.148651   302A     12.213304  
     303A     12.315893   304A     12.320365   305A     12.393971  
     306A     12.404531   307A     12.655709   308A     12.793394  
     309A     12.911706   310A     12.925929   311A     12.937042  
     312A     12.943522   313A     13.195501   314A     13.265430  
     315A     13.383161   316A     14.015522   317A     14.211663  
     318A     14.368444   319A     14.370048   320A     14.480665  
     321A     14.552057   322A     14.682671   323A     14.755252  
     324A     14.779018   325A     14.825907   326A     14.919426  
     327A     15.124006   328A     15.310904   329A     15.388178  
     330A     16.184487   331A     16.523342   332A     17.009268  
     333A     17.395046   334A     18.382748   335A     18.545122  
     336A     18.766027   337A     19.176783   338A     20.506362  
     339A     22.404073   340A     22.759408   341A     24.904246  
     342A     26.168573   343A     46.155076   344A    124.809176  

    Final Occupation by Irrep:
              A 
    DOCC [     5 ]
    NA   [     5 ]
    NB   [     5 ]

  @DF-RHF Final Energy:   -76.06590645602574

   => Energetics <=

    Nuclear Repulsion Energy =              9.1780389409790644
    One-Electron Energy =                -123.0304723434218488
    Two-Electron Energy =                  37.7865269464170481
    Total Energy =                        -76.0659064560257434

Computation Completed


Properties will be evaluated at   0.000000,   0.000000,   0.000000 [a0]

Properties computed using the SCF density matrix


 Multipole Moments:

 ------------------------------------------------------------------------------------
     Multipole            Electronic (a.u.)      Nuclear  (a.u.)        Total (a.u.)
 ------------------------------------------------------------------------------------

 L = 1.  Multiply by 2.5417464519 to convert [e a0] to [Debye]
 Dipole X            :        -27.5756861           28.0137395            0.4380534
 Dipole Y            :         -0.9131346            0.2687651           -0.6443695
 Dipole Z            :         -0.0000000            0.0000000           -0.0000000
 Magnitude           :                                                    0.7791681

 ------------------------------------------------------------------------------------

*** tstop() called on Mac-mini.local at Tue Nov 18 11:46:19 2025
Module time:
	user time   =       3.15 seconds =       0.05 minutes
	system time =       0.09 seconds =       0.00 minutes
	total time  =          4 seconds =       0.07 minutes
Total time:
	user time   =       9.99 seconds =       0.17 minutes
	system time =       0.39 seconds =       0.01 minutes
	total time  =         11 seconds =       0.18 minutes

         ---------------------------------------------------------
                        SAPT(DFT): delta HF Segment                

                   by Daniel G. A. Smith and Rob Parrish           
         ---------------------------------------------------------


  ==> Preparing SAPT Data Cache <== 

  ==> DiskDFJK: Density-Fitted J/K Matrices <==

    J tasked:                  Yes
    K tasked:                  Yes
    wK tasked:                  No
    OpenMP threads:              1
    Integrals threads:           1
    Memory [MiB]:              375
    Algorithm:                Core
    Integral Cache:           SAVE
    Schwarz Cutoff:          1E-12
    Fitting Condition:       1E-10

   => Auxiliary Basis Set <=

  Basis Set: (AUG-CC-PVQZ AUX)
    Blend: AUG-CC-PVQZ-JKFIT
    Number of shells: 140
    Number of basis functions: 588
    Number of Cartesian functions: 800
    Spherical Harmonics?: true
    Max angular momentum: 5


  ==> E10 Electostatics <== 

    Elst10,r                        -13.29221105 [mEh]

  ==> E10 Exchange <== 

    Exch10(S^2)                      11.10141115 [mEh]
    Exch10                           11.18078984 [mEh]

  ==> E20 Induction <== 

   => Uncoupled Induction <= 

    Ind20,u (A<-B)                   -1.35928000 [mEh]
    Ind20,u (A->B)                   -2.56651531 [mEh]
    Ind20,u                          -3.92579532 [mEh]
    Exch-Ind20,u (A<-B)               0.93410388 [mEh]
    Exch-Ind20,u (A->B)               1.18501021 [mEh]
    Exch-Ind20,u                      2.11911408 [mEh]

   => Coupled Induction <= 

   ---------------------------------------------------
              SAPT Coupled Induction Solver           
   ---------------------------------------------------
    Maxiter             =          20
    Convergence         =   1.000E-06
   ---------------------------------------------------
     Iter       (A<-B)           (B->A)      Time [s]
   ---------------------------------------------------
    Guess    1.038124e-01     1.786704e-01          0
        1    3.854183e-02     7.482615e-02          0
        2    1.086136e-02     1.959122e-02          1
        3    3.792840e-03     5.550253e-03          1
        4    5.077734e-04     8.537180e-04          2
        5    9.241914e-05     1.657146e-04          2
        6    2.119261e-05     3.427696e-05          3
        7    4.864862e-06     7.316922e-06          3
        8    9.064773e-07*    1.719497e-06          4
        9    9.064773e-07*    4.526630e-07*         4
   ---------------------------------------------------

    Ind20,r (A<-B)                   -1.54624082 [mEh]
    Ind20,r (A->B)                   -3.24291673 [mEh]
    Ind20,r                          -4.78915755 [mEh]
    Exch-Ind20,r (A<-B)               1.05154619 [mEh]
    Exch-Ind20,r (A->B)               1.59426083 [mEh]
    Exch-Ind20,r                      2.64580702 [mEh]

   Partial SAPT(HF) Results, to compute Delta HF (dHF)
  ---------------------------------------------------------------------------------------------------------
    Electrostatics                  -13.29221105 [mEh]     -8.34098836 [kcal/mol]    -34.89869530 [kJ/mol]
      Elst10,r                      -13.29221105 [mEh]     -8.34098836 [kcal/mol]    -34.89869530 [kJ/mol]

    Exchange                         11.18078984 [mEh]      7.01605155 [kcal/mol]     29.35515969 [kJ/mol]
      Exch10                         11.18078984 [mEh]      7.01605155 [kcal/mol]     29.35515969 [kJ/mol]
      Exch10(S^2)                    11.10141115 [mEh]      6.96624067 [kcal/mol]     29.14675095 [kJ/mol]

    Induction (no dHF)               -2.14335053 [mEh]     -1.34497276 [kcal/mol]     -5.62736605 [kJ/mol]
      Ind20,r                        -4.78915755 [mEh]     -3.00524174 [kcal/mol]    -12.57393142 [kJ/mol]
      Exch-Ind20,r                    2.64580702 [mEh]      1.66026897 [kcal/mol]      6.94656538 [kJ/mol]
      Induction (A<-B) (no dHF)      -0.49469464 [mEh]     -0.31042557 [kcal/mol]     -1.29882059 [kJ/mol]
      Induction (A->B) (no dHF)      -1.64865589 [mEh]     -1.03454719 [kcal/mol]     -4.32854545 [kJ/mol]

    Subtotal SAPT(HF)                -4.25477174 [mEh]     -2.66990957 [kcal/mol]    -11.17090165 [kJ/mol]
    Total HF                         -5.71353686 [mEh]     -3.58529851 [kcal/mol]    -15.00088896 [kJ/mol]
    Delta HF                         -1.45876512 [mEh]     -0.91538894 [kcal/mol]     -3.82998731 [kJ/mol]
  ---------------------------------------------------------------------------------------------------------
   Partial SAPT(HF) Results, alternate SAPT0-like display
  ---------------------------------------------------------------------------------------------------------
    Induction                        -3.60211566 [mEh]     -2.26036170 [kcal/mol]     -9.45735335 [kJ/mol]
      Ind20,r                        -4.78915755 [mEh]     -3.00524174 [kcal/mol]    -12.57393142 [kJ/mol]
      Exch-Ind20,r                    2.64580702 [mEh]      1.66026897 [kcal/mol]      6.94656538 [kJ/mol]
      delta HF,r (2)                 -1.45876512 [mEh]     -0.91538894 [kcal/mol]     -3.82998731 [kJ/mol]
      Induction (A<-B)               -0.83138398 [mEh]     -0.52170132 [kcal/mol]     -2.18279834 [kJ/mol]
      Induction (A->B)               -2.77073168 [mEh]     -1.73866038 [kcal/mol]     -7.27455501 [kJ/mol]
  ---------------------------------------------------------------------------------------------------------
   => Libint2 <=

    Primary   basis highest AM E, G, H:  6, 6, 3
    Auxiliary basis highest AM E, G, H:  7, 7, 4
    Onebody   basis highest AM E, G, H:  -, -, -
    Solid Harmonics ordering:            Gaussian

*** tstart() called on Mac-mini.local
*** at Tue Nov 18 11:46:26 2025

   => Loading Basis Set <=

    Name: AUG-CC-PVQZ
    Role: ORBITAL
    Keyword: BASIS
    atoms 1, 4     entry O          line   423 file /Users/basirbinrafiq/miniforge3/envs/p4fix/share/psi4/basis/aug-cc-pvqz.gbs 
    atoms 2-3, 5-6 entry H          line    40 file /Users/basirbinrafiq/miniforge3/envs/p4fix/share/psi4/basis/aug-cc-pvqz.gbs 


         ---------------------------------------------------------
                          SAPT(DFT): DFT Monomer A                 
         ---------------------------------------------------------
                                   SCF
               by Justin Turney, Rob Parrish, Andy Simmonett
                          and Daniel G. A. Smith
                              RKS Reference
                        1 Threads,    500 MiB Core
         ---------------------------------------------------------

  ==> Geometry <==

    Molecular point group: c1
    Full point group: Cs

    Geometry (in Angstrom), charge = 0, multiplicity = 1:

       Center              X                  Y                   Z               Mass       
    ------------   -----------------  -----------------  -----------------  -----------------
         O           -1.485163346101    -0.114724564047     0.000000000000    15.994914619570
         H           -1.868415346101     0.762298435953     0.000000000000     1.007825032230
         H           -0.533833346101     0.040507435953     0.000000000000     1.007825032230
      Gh(O)           1.416468653899     0.111264435953     0.000000000000    15.994914619570
      Gh(H)           1.746241653899    -0.373945564047    -0.758561000000     1.007825032230
      Gh(H)           1.746241653899    -0.373945564047     0.758561000000     1.007825032230

  Running in c1 symmetry.

  Rotational constants: A =      7.15151  B =      0.21457  C =      0.21447 [cm^-1]
  Rotational constants: A = 214396.91837  B =   6432.69061  C =   6429.61818 [MHz]
  Nuclear repulsion =    9.163830181985562

  Charge       = 0
  Multiplicity = 1
  Electrons    = 10
  Nalpha       = 5
  Nbeta        = 5

  ==> Algorithm <==

  SCF Algorithm Type is DF.
  DIIS enabled.
  MOM disabled.
  Fractional occupation disabled.
  Guess Type is SAD.
  Energy threshold   = 1.00e-08
  Density threshold  = 1.00e-08
  Integral threshold = 1.00e-12

  ==> Primary Basis <==

  Basis Set: AUG-CC-PVQZ
    Blend: AUG-CC-PVQZ
    Number of shells: 96
    Number of basis functions: 344
    Number of Cartesian functions: 430
    Spherical Harmonics?: true
    Max angular momentum: 4

  ==> DFT Potential <==

   => LibXC <=

    Version 7.0.0
    S. Lehtola, C. Steigemann, M. J.T. Oliveira, and M. A.L. Marques.,  SoftwareX 7, 15 (2018) (10.1016/j.softx.2017.11.002)

   => Composite Functional: PBE0 <= 

    PBE0 Hyb-GGA Exchange-Correlation Functional

    C. Adamo and V. Barone.,  J. Chem. Phys. 110, 6158 (1999) (10.1063/1.478522)
    M. Ernzerhof and G. E. Scuseria.,  J. Chem. Phys. 110, 5029 (1999) (10.1063/1.478401)

    Deriv               =              1
    GGA                 =           TRUE
    Meta                =          FALSE

    Exchange Hybrid     =           TRUE
    MP2 Hybrid          =          FALSE

   => Exchange Functionals <=

    0.7500   Perdew, Burke & Ernzerhof

   => Exact (HF) Exchange <=

    0.2500               HF 

   => Correlation Functionals <=

    1.0000   Perdew, Burke & Ernzerhof

   => LibXC Density Thresholds  <==

    XC_HYB_GGA_XC_PBEH:  1.00E-15 

   => Asymptotic Correction <=

    X Functional        =    XC_GGA_X_LB
    C Functional        =   XC_LDA_C_VWN
    Bulk Shift          =       0.129990
    GRAC Alpha          =       0.500000
    GRAC Beta           =      40.000000

   => Molecular Quadrature <=

    Radial Scheme          =       TREUTLER
    Pruning Scheme         =           NONE
    Nuclear Scheme         =       TREUTLER

    Blocking Scheme        =         OCTREE
    BS radius alpha        =              1
    Pruning alpha          =              1
    Radial Points          =             75
    Spherical Points       =            302
    Total Points           =         132399
    Total Blocks           =           1048
    Max Points             =            256
    Max Functions          =            342
    Weights Tolerance      =       1.00E-15

   => Loading Basis Set <=

    Name: (AUG-CC-PVQZ AUX)
    Role: JKFIT
    Keyword: DF_BASIS_SCF
    atoms 1, 4     entry O          line   318 file /Users/basirbinrafiq/miniforge3/envs/p4fix/share/psi4/basis/aug-cc-pvqz-jkfit.gbs 
    atoms 2-3, 5-6 entry H          line    70 file /Users/basirbinrafiq/miniforge3/envs/p4fix/share/psi4/basis/aug-cc-pvqz-jkfit.gbs 

  ==> Integral Setup <==

  ==> DiskDFJK: Density-Fitted J/K Matrices <==

    J tasked:                  Yes
    K tasked:                  Yes
    wK tasked:                  No
    OpenMP threads:              1
    Integrals threads:           1
    Memory [MiB]:              265
    Algorithm:                Disk
    Integral Cache:           SAVE
    Schwarz Cutoff:          1E-12
    Fitting Condition:       1E-10

   => Auxiliary Basis Set <=

  Basis Set: (AUG-CC-PVQZ AUX)
    Blend: AUG-CC-PVQZ-JKFIT
    Number of shells: 140
    Number of basis functions: 588
    Number of Cartesian functions: 800
    Spherical Harmonics?: true
    Max angular momentum: 5

  Cached 10.0% of DFT collocation blocks in 0.103 [GiB].

  Minimum eigenvalue in the overlap matrix is 4.2457927812E-05.
  Reciprocal condition number of the overlap matrix is 4.1184768636E-06.
    Using symmetric orthogonalization.

  ==> Pre-Iterations <==

  SCF Guess: Superposition of Atomic Densities via on-the-fly atomic UHF (no occupation information).

   -------------------------
    Irrep   Nso     Nmo    
   -------------------------
     A        344     344 
   -------------------------
    Total     344     344
   -------------------------

  ==> Iterations <==

                           Total Energy        Delta E     RMS |[F,P]|

   @DF-RKS iter SAD:   -75.98195698009653   -7.59820e+01   0.00000e+00 
   @DF-RKS iter   1:   -76.22140449263162   -2.39448e-01   2.01083e-03 DIIS/ADIIS
   @DF-RKS iter   2:   -75.93866536001795    2.82739e-01   3.17652e-03 DIIS/ADIIS
   @DF-RKS iter   3:   -76.38524229707505   -4.46577e-01   9.88560e-05 DIIS
   @DF-RKS iter   4:   -76.38579150474722   -5.49208e-04   1.39969e-05 DIIS
   @DF-RKS iter   5:   -76.38579425842529   -2.75368e-06   2.18371e-06 DIIS
   @DF-RKS iter   6:   -76.38579372505839    5.33367e-07   2.03826e-07 DIIS
   @DF-RKS iter   7:   -76.38579370049318    2.45652e-08   1.57856e-08 DIIS
   @DF-RKS iter   8:   -76.38579369211351    8.37967e-09   1.75140e-09 DIIS
  Energy and wave function converged.


  ==> Post-Iterations <==

   Electrons on quadrature grid:
      Ntotal   =   10.0000000424 ; deviation = 4.240e-08 

    Orbital Energies [Eh]
    ---------------------

    Doubly Occupied:                                                      

       1A    -19.337840     2A     -1.173059     3A     -0.678690  
       4A     -0.539757     5A     -0.462663  

    Virtual:                                                              

       6A     -0.119839     7A     -0.061358     8A     -0.031129  
       9A     -0.027368    10A     -0.009754    11A      0.001765  
      12A      0.011580    13A      0.018305    14A      0.031784  
      15A      0.049943    16A      0.060203    17A      0.071799  
      18A      0.072013    19A      0.095007    20A      0.096603  
      21A      0.130076    22A      0.135736    23A      0.139539  
      24A      0.141506    25A      0.173759    26A      0.187857  
      27A      0.206248    28A      0.212540    29A      0.217294  
      30A      0.225510    31A      0.258612    32A      0.261533  
      33A      0.287152    34A      0.322459    35A      0.340672  
      36A      0.345559    37A      0.356116    38A      0.360889  
      39A      0.386956    40A      0.414366    41A      0.442906  
      42A      0.456202    43A      0.460319    44A      0.468044  
      45A      0.473946    46A      0.488591    47A      0.498856  
      48A      0.507881    49A      0.526629    50A      0.549209  
      51A      0.564653    52A      0.566127    53A      0.569433  
      54A      0.588471    55A      0.599815    56A      0.615110  
      57A      0.623200    58A      0.642315    59A      0.681162  
      60A      0.691906    61A      0.703935    62A      0.706508  
      63A      0.716716    64A      0.742632    65A      0.767859  
      66A      0.768048    67A      0.797330    68A      0.802458  
      69A      0.822108    70A      0.886026    71A      0.895842  
      72A      0.909162    73A      0.946978    74A      0.965510  
      75A      1.000360    76A      1.053840    77A      1.116582  
      78A      1.144869    79A      1.166881    80A      1.173639  
      81A      1.208723    82A      1.220902    83A      1.254296  
      84A      1.255616    85A      1.259033    86A      1.296177  
      87A      1.316829    88A      1.340964    89A      1.343452  
      90A      1.370768    91A      1.381507    92A      1.391342  
      93A      1.418737    94A      1.427131    95A      1.436206  
      96A      1.452318    97A      1.488776    98A      1.493991  
      99A      1.495444   100A      1.512709   101A      1.534739  
     102A      1.567699   103A      1.578936   104A      1.580118  
     105A      1.599917   106A      1.611468   107A      1.611605  
     108A      1.665507   109A      1.682299   110A      1.683946  
     111A      1.723506   112A      1.747521   113A      1.774411  
     114A      1.781317   115A      1.810059   116A      1.812709  
     117A      1.821850   118A      1.839589   119A      1.854451  
     120A      1.868150   121A      1.887338   122A      1.893961  
     123A      1.903167   124A      1.947987   125A      1.967877  
     126A      1.971711   127A      2.006909   128A      2.049772  
     129A      2.066405   130A      2.098669   131A      2.128291  
     132A      2.138359   133A      2.181498   134A      2.209793  
     135A      2.242183   136A      2.260717   137A      2.300771  
     138A      2.345413   139A      2.387273   140A      2.404570  
     141A      2.425385   142A      2.467332   143A      2.489455  
     144A      2.570131   145A      2.612958   146A      2.614081  
     147A      2.691724   148A      2.734661   149A      2.751015  
     150A      2.770328   151A      2.842980   152A      2.863635  
     153A      2.929431   154A      2.948339   155A      2.988650  
     156A      3.135609   157A      3.172888   158A      3.198598  
     159A      3.223692   160A      3.242389   161A      3.274572  
     162A      3.317136   163A      3.328496   164A      3.360951  
     165A      3.409093   166A      3.436394   167A      3.461143  
     168A      3.489577   169A      3.564429   170A      3.583932  
     171A      3.586025   172A      3.640222   173A      3.651997  
     174A      3.685741   175A      3.721195   176A      3.744511  
     177A      3.776609   178A      3.815356   179A      3.853283  
     180A      3.912806   181A      3.928293   182A      3.937269  
     183A      4.016545   184A      4.058950   185A      4.131048  
     186A      4.134055   187A      4.178348   188A      4.198942  
     189A      4.236069   190A      4.265065   191A      4.352090  
     192A      4.372082   193A      4.395070   194A      4.425752  
     195A      4.459493   196A      4.516745   197A      4.547975  
     198A      4.609911   199A      4.642509   200A      4.678497  
     201A      4.778095   202A      4.808196   203A      4.858248  
     204A      4.868617   205A      4.928521   206A      4.949594  
     207A      4.980117   208A      5.032129   209A      5.087839  
     210A      5.136545   211A      5.198885   212A      5.253885  
     213A      5.392157   214A      5.514918   215A      5.530395  
     216A      5.566550   217A      5.664208   218A      5.690540  
     219A      5.753669   220A      6.023869   221A      6.152701  
     222A      6.219728   223A      6.375144   224A      6.400338  
     225A      6.434610   226A      6.478855   227A      6.495815  
     228A      6.554588   229A      6.767342   230A      6.779554  
     231A      6.906507   232A      7.038830   233A      7.065821  
     234A      7.076108   235A      7.127057   236A      7.266459  
     237A      7.282334   238A      7.334693   239A      7.343713  
     240A      7.358061   241A      7.415646   242A      7.475774  
     243A      7.529516   244A      7.599559   245A      7.678295  
     246A      7.791721   247A      7.876905   248A      8.034677  
     249A      8.081095   250A      8.192040   251A      8.211088  
     252A      8.218219   253A      8.224173   254A      8.255530  
     255A      8.338451   256A      8.375248   257A      8.417520  
     258A      8.428256   259A      8.471815   260A      8.516146  
     261A      8.565226   262A      8.624330   263A      8.686949  
     264A      8.755427   265A      8.837680   266A      8.887964  
     267A      9.114628   268A      9.238565   269A      9.294485  
     270A      9.389365   271A      9.447273   272A      9.479505  
     273A      9.511215   274A      9.519285   275A      9.544298  
     276A      9.571402   277A      9.734774   278A      9.760672  
     279A      9.859078   280A      9.892568   281A      9.961889  
     282A     10.060335   283A     10.228894   284A     10.424052  
     285A     10.485872   286A     10.495301   287A     10.637411  
     288A     10.669699   289A     10.730092   290A     10.752923  
     291A     10.803381   292A     10.843500   293A     10.887607  
     294A     10.948449   295A     11.148986   296A     11.175594  
     297A     11.238371   298A     11.285521   299A     11.365946  
     300A     11.451136   301A     11.607921   302A     11.633833  
     303A     11.878623   304A     12.012338   305A     12.088732  
     306A     12.142853   307A     12.153883   308A     12.232378  
     309A     12.300721   310A     12.317879   311A     12.574695  
     312A     12.676706   313A     12.869549   314A     13.149676  
     315A     13.323500   316A     13.418505   317A     13.526648  
     318A     13.857385   319A     14.147837   320A     14.176053  
     321A     14.181697   322A     14.258294   323A     14.327858  
     324A     14.479908   325A     14.545000   326A     14.554866  
     327A     14.741786   328A     14.941230   329A     15.211275  
     330A     15.923140   331A     16.277257   332A     16.455841  
     333A     16.672392   334A     18.245659   335A     18.363968  
     336A     18.529588   337A     19.031894   338A     20.297307  
     339A     22.421446   340A     22.715611   341A     24.774003  
     342A     26.081176   343A     44.132029   344A    125.241964  

    Final Occupation by Irrep:
              A 
    DOCC [     5 ]
    NA   [     5 ]
    NB   [     5 ]

  @DF-RKS Final Energy:   -76.38579369211351

   => Energetics <=

    Nuclear Repulsion Energy =              9.1638301819855617
    One-Electron Energy =                -123.0113234949081686
    Two-Electron Energy =                  44.4803894427074340
    DFT Exchange-Correlation Energy =      -7.0186898218983416
    Empirical Dispersion Energy =           0.0000000000000000
    VV10 Nonlocal Energy =                  0.0000000000000000
    Total Energy =                        -76.3857936921135092

Computation Completed


Properties will be evaluated at   0.000000,   0.000000,   0.000000 [a0]

Properties computed using the SCF density matrix


 Multipole Moments:

 ------------------------------------------------------------------------------------
     Multipole            Electronic (a.u.)      Nuclear  (a.u.)        Total (a.u.)
 ------------------------------------------------------------------------------------

 L = 1.  Multiply by 2.5417464519 to convert [e a0] to [Debye]
 Dipole X            :         27.3444888          -26.9920079            0.3524809
 Dipole Y            :          0.8601635           -0.2173008            0.6428627
 Dipole Z            :          0.0000000            0.0000000            0.0000000
 Magnitude           :                                                    0.7331543

 ------------------------------------------------------------------------------------

*** tstop() called on Mac-mini.local at Tue Nov 18 11:46:39 2025
Module time:
	user time   =      12.77 seconds =       0.21 minutes
	system time =       0.39 seconds =       0.01 minutes
	total time  =         13 seconds =       0.22 minutes
Total time:
	user time   =      29.71 seconds =       0.50 minutes
	system time =       0.81 seconds =       0.01 minutes
	total time  =         31 seconds =       0.52 minutes
   => Libint2 <=

    Primary   basis highest AM E, G, H:  6, 6, 3
    Auxiliary basis highest AM E, G, H:  7, 7, 4
    Onebody   basis highest AM E, G, H:  -, -, -
    Solid Harmonics ordering:            Gaussian

*** tstart() called on Mac-mini.local
*** at Tue Nov 18 11:46:39 2025

   => Loading Basis Set <=

    Name: AUG-CC-PVQZ
    Role: ORBITAL
    Keyword: BASIS
    atoms 1, 4     entry O          line   423 file /Users/basirbinrafiq/miniforge3/envs/p4fix/share/psi4/basis/aug-cc-pvqz.gbs 
    atoms 2-3, 5-6 entry H          line    40 file /Users/basirbinrafiq/miniforge3/envs/p4fix/share/psi4/basis/aug-cc-pvqz.gbs 


         ---------------------------------------------------------
                          SAPT(DFT): DFT Monomer B                 
         ---------------------------------------------------------
                                   SCF
               by Justin Turney, Rob Parrish, Andy Simmonett
                          and Daniel G. A. Smith
                              RKS Reference
                        1 Threads,    500 MiB Core
         ---------------------------------------------------------

  ==> Geometry <==

    Molecular point group: c1
    Full point group: Cs

    Geometry (in Angstrom), charge = 0, multiplicity = 1:

       Center              X                  Y                   Z               Mass       
    ------------   -----------------  -----------------  -----------------  -----------------
      Gh(O)          -1.485163346101    -0.114724564047     0.000000000000    15.994914619570
      Gh(H)          -1.868415346101     0.762298435953     0.000000000000     1.007825032230
      Gh(H)          -0.533833346101     0.040507435953     0.000000000000     1.007825032230
         O            1.416468653899     0.111264435953     0.000000000000    15.994914619570
         H            1.746241653899    -0.373945564047    -0.758561000000     1.007825032230
         H            1.746241653899    -0.373945564047     0.758561000000     1.007825032230

  Running in c1 symmetry.

  Rotational constants: A =      7.15151  B =      0.21457  C =      0.21447 [cm^-1]
  Rotational constants: A = 214396.91837  B =   6432.69061  C =   6429.61818 [MHz]
  Nuclear repulsion =    9.178038940979064

  Charge       = 0
  Multiplicity = 1
  Electrons    = 10
  Nalpha       = 5
  Nbeta        = 5

  ==> Algorithm <==

  SCF Algorithm Type is DF.
  DIIS enabled.
  MOM disabled.
  Fractional occupation disabled.
  Guess Type is SAD.
  Energy threshold   = 1.00e-08
  Density threshold  = 1.00e-08
  Integral threshold = 1.00e-12

  ==> Primary Basis <==

  Basis Set: AUG-CC-PVQZ
    Blend: AUG-CC-PVQZ
    Number of shells: 96
    Number of basis functions: 344
    Number of Cartesian functions: 430
    Spherical Harmonics?: true
    Max angular momentum: 4

  ==> DFT Potential <==

   => LibXC <=

    Version 7.0.0
    S. Lehtola, C. Steigemann, M. J.T. Oliveira, and M. A.L. Marques.,  SoftwareX 7, 15 (2018) (10.1016/j.softx.2017.11.002)

   => Composite Functional: PBE0 <= 

    PBE0 Hyb-GGA Exchange-Correlation Functional

    C. Adamo and V. Barone.,  J. Chem. Phys. 110, 6158 (1999) (10.1063/1.478522)
    M. Ernzerhof and G. E. Scuseria.,  J. Chem. Phys. 110, 5029 (1999) (10.1063/1.478401)

    Deriv               =              1
    GGA                 =           TRUE
    Meta                =          FALSE

    Exchange Hybrid     =           TRUE
    MP2 Hybrid          =          FALSE

   => Exchange Functionals <=

    0.7500   Perdew, Burke & Ernzerhof

   => Exact (HF) Exchange <=

    0.2500               HF 

   => Correlation Functionals <=

    1.0000   Perdew, Burke & Ernzerhof

   => LibXC Density Thresholds  <==

    XC_HYB_GGA_XC_PBEH:  1.00E-15 

   => Asymptotic Correction <=

    X Functional        =    XC_GGA_X_LB
    C Functional        =   XC_LDA_C_VWN
    Bulk Shift          =       0.129990
    GRAC Alpha          =       0.500000
    GRAC Beta           =      40.000000

   => Molecular Quadrature <=

    Radial Scheme          =       TREUTLER
    Pruning Scheme         =           NONE
    Nuclear Scheme         =       TREUTLER

    Blocking Scheme        =         OCTREE
    BS radius alpha        =              1
    Pruning alpha          =              1
    Radial Points          =             75
    Spherical Points       =            302
    Total Points           =         132399
    Total Blocks           =           1048
    Max Points             =            256
    Max Functions          =            342
    Weights Tolerance      =       1.00E-15

   => Loading Basis Set <=

    Name: (AUG-CC-PVQZ AUX)
    Role: JKFIT
    Keyword: DF_BASIS_SCF
    atoms 1, 4     entry O          line   318 file /Users/basirbinrafiq/miniforge3/envs/p4fix/share/psi4/basis/aug-cc-pvqz-jkfit.gbs 
    atoms 2-3, 5-6 entry H          line    70 file /Users/basirbinrafiq/miniforge3/envs/p4fix/share/psi4/basis/aug-cc-pvqz-jkfit.gbs 

  ==> Integral Setup <==

  ==> DiskDFJK: Density-Fitted J/K Matrices <==

    J tasked:                  Yes
    K tasked:                  Yes
    wK tasked:                  No
    OpenMP threads:              1
    Integrals threads:           1
    Memory [MiB]:              265
    Algorithm:                Disk
    Integral Cache:           SAVE
    Schwarz Cutoff:          1E-12
    Fitting Condition:       1E-10

   => Auxiliary Basis Set <=

  Basis Set: (AUG-CC-PVQZ AUX)
    Blend: AUG-CC-PVQZ-JKFIT
    Number of shells: 140
    Number of basis functions: 588
    Number of Cartesian functions: 800
    Spherical Harmonics?: true
    Max angular momentum: 5

  Cached 10.0% of DFT collocation blocks in 0.103 [GiB].

  Minimum eigenvalue in the overlap matrix is 4.2457927812E-05.
  Reciprocal condition number of the overlap matrix is 4.1184768636E-06.
    Using symmetric orthogonalization.

  ==> Pre-Iterations <==

  SCF Guess: Superposition of Atomic Densities via on-the-fly atomic UHF (no occupation information).

   -------------------------
    Irrep   Nso     Nmo    
   -------------------------
     A        344     344 
   -------------------------
    Total     344     344
   -------------------------

  ==> Iterations <==

                           Total Energy        Delta E     RMS |[F,P]|

   @DF-RKS iter SAD:   -75.98280403816591   -7.59828e+01   0.00000e+00 
   @DF-RKS iter   1:   -76.22131021741018   -2.38506e-01   2.01270e-03 DIIS/ADIIS
   @DF-RKS iter   2:   -75.94045267761433    2.80858e-01   3.17236e-03 DIIS/ADIIS
   @DF-RKS iter   3:   -76.38529914860136   -4.44846e-01   9.87713e-05 DIIS
   @DF-RKS iter   4:   -76.38584705200518   -5.47903e-04   1.39597e-05 DIIS
   @DF-RKS iter   5:   -76.38584990447137   -2.85247e-06   2.18421e-06 DIIS
   @DF-RKS iter   6:   -76.38584939659285    5.07879e-07   1.99731e-07 DIIS
   @DF-RKS iter   7:   -76.38584937490941    2.16834e-08   1.57276e-08 DIIS
   @DF-RKS iter   8:   -76.38584936648223    8.42718e-09   1.63413e-09 DIIS
  Energy and wave function converged.


  ==> Post-Iterations <==

   Electrons on quadrature grid:
      Ntotal   =   10.0000014808 ; deviation = 1.481e-06 

    Orbital Energies [Eh]
    ---------------------

    Doubly Occupied:                                                      

       1A    -19.337544     2A     -1.173565     3A     -0.679705  
       4A     -0.539470     5A     -0.462740  

    Virtual:                                                              

       6A     -0.119589     7A     -0.061099     8A     -0.041420  
       9A     -0.025748    10A     -0.003755    11A      0.009032  
      12A      0.016918    13A      0.029216    14A      0.030256  
      15A      0.045968    16A      0.046238    17A      0.054014  
      18A      0.076711    19A      0.089811    20A      0.100984  
      21A      0.124648    22A      0.155795    23A      0.157755  
      24A      0.166574    25A      0.180527    26A      0.183648  
      27A      0.192587    28A      0.203293    29A      0.208673  
      30A      0.218708    31A      0.234989    32A      0.273482  
      33A      0.293250    34A      0.308976    35A      0.320340  
      36A      0.361860    37A      0.379385    38A      0.408169  
      39A      0.408662    40A      0.412944    41A      0.430813  
      42A      0.443201    43A      0.457175    44A      0.489291  
      45A      0.512068    46A      0.526187    47A      0.531464  
      48A      0.533138    49A      0.547603    50A      0.553778  
      51A      0.561033    52A      0.561169    53A      0.574900  
      54A      0.577820    55A      0.609314    56A      0.621108  
      57A      0.621377    58A      0.622368    59A      0.635372  
      60A      0.647854    61A      0.672650    62A      0.685655  
      63A      0.699847    64A      0.721827    65A      0.746591  
      66A      0.751300    67A      0.802751    68A      0.837081  
      69A      0.855431    70A      0.870087    71A      0.920391  
      72A      0.942862    73A      0.979750    74A      0.983153  
      75A      1.012295    76A      1.088799    77A      1.111035  
      78A      1.176062    79A      1.183751    80A      1.207241  
      81A      1.211598    82A      1.227526    83A      1.232324  
      84A      1.254988    85A      1.306709    86A      1.308489  
      87A      1.315677    88A      1.327140    89A      1.333124  
      90A      1.391279    91A      1.401813    92A      1.443623  
      93A      1.451571    94A      1.455460    95A      1.477300  
      96A      1.480255    97A      1.504589    98A      1.508894  
      99A      1.522118   100A      1.524954   101A      1.541704  
     102A      1.548208   103A      1.595365   104A      1.604454  
     105A      1.616946   106A      1.642717   107A      1.663302  
     108A      1.664183   109A      1.683753   110A      1.683795  
     111A      1.685202   112A      1.701033   113A      1.706607  
     114A      1.728214   115A      1.770558   116A      1.782672  
     117A      1.783520   118A      1.796854   119A      1.834692  
     120A      1.860646   121A      1.889166   122A      1.891199  
     123A      1.922322   124A      1.932742   125A      1.981089  
     126A      2.020463   127A      2.049832   128A      2.053787  
     129A      2.083352   130A      2.095091   131A      2.112596  
     132A      2.117588   133A      2.128726   134A      2.189724  
     135A      2.226193   136A      2.230458   137A      2.311102  
     138A      2.323969   139A      2.341019   140A      2.370878  
     141A      2.508791   142A      2.563637   143A      2.575347  
     144A      2.628386   145A      2.639326   146A      2.707462  
     147A      2.727390   148A      2.727567   149A      2.760549  
     150A      2.780556   151A      2.872295   152A      2.889289  
     153A      2.952902   154A      2.976027   155A      3.015090  
     156A      3.070412   157A      3.090264   158A      3.176507  
     159A      3.189300   160A      3.211129   161A      3.259000  
     162A      3.319071   163A      3.336639   164A      3.365868  
     165A      3.367210   166A      3.397803   167A      3.438880  
     168A      3.456377   169A      3.562955   170A      3.605408  
     171A      3.606065   172A      3.677459   173A      3.691177  
     174A      3.713025   175A      3.730763   176A      3.799568  
     177A      3.840006   178A      3.891965   179A      3.934441  
     180A      3.945402   181A      4.050950   182A      4.063739  
     183A      4.120955   184A      4.138506   185A      4.185979  
     186A      4.211268   187A      4.235602   188A      4.311925  
     189A      4.316825   190A      4.343341   191A      4.352794  
     192A      4.361068   193A      4.408421   194A      4.416761  
     195A      4.434977   196A      4.461343   197A      4.476462  
     198A      4.572987   199A      4.604737   200A      4.643161  
     201A      4.656350   202A      4.790211   203A      4.864630  
     204A      4.898311   205A      4.950409   206A      5.034603  
     207A      5.068679   208A      5.104523   209A      5.118182  
     210A      5.216755   211A      5.238239   212A      5.340345  
     213A      5.401486   214A      5.433385   215A      5.456471  
     216A      5.574107   217A      5.648964   218A      5.708727  
     219A      5.762943   220A      5.904792   221A      5.939701  
     222A      6.228827   223A      6.455683   224A      6.466610  
     225A      6.501553   226A      6.507097   227A      6.559289  
     228A      6.631825   229A      6.822946   230A      6.909964  
     231A      6.924316   232A      6.983685   233A      7.018000  
     234A      7.079047   235A      7.153855   236A      7.185625  
     237A      7.262470   238A      7.355681   239A      7.386428  
     240A      7.430401   241A      7.487603   242A      7.505393  
     243A      7.555150   244A      7.573142   245A      7.670314  
     246A      7.808084   247A      7.916053   248A      8.001817  
     249A      8.044525   250A      8.168372   251A      8.213163  
     252A      8.218515   253A      8.250472   254A      8.337971  
     255A      8.343402   256A      8.399559   257A      8.402320  
     258A      8.436924   259A      8.451760   260A      8.526528  
     261A      8.575310   262A      8.624324   263A      8.694963  
     264A      8.784973   265A      8.882117   266A      8.967110  
     267A      9.141452   268A      9.180815   269A      9.275815  
     270A      9.297520   271A      9.386667   272A      9.425607  
     273A      9.430388   274A      9.482286   275A      9.556984  
     276A      9.599519   277A      9.682738   278A      9.810244  
     279A      9.844540   280A      9.857543   281A      9.964604  
     282A     10.028014   283A     10.313386   284A     10.543365  
     285A     10.549882   286A     10.614656   287A     10.689161  
     288A     10.738555   289A     10.791402   290A     10.836483  
     291A     10.861765   292A     10.929630   293A     10.932554  
     294A     11.150196   295A     11.176664   296A     11.209222  
     297A     11.234881   298A     11.411568   299A     11.524441  
     300A     11.559995   301A     11.660650   302A     11.693769  
     303A     11.852104   304A     11.955879   305A     11.985220  
     306A     12.146944   307A     12.204071   308A     12.240536  
     309A     12.264964   310A     12.276070   311A     12.517270  
     312A     12.762916   313A     12.797008   314A     13.134298  
     315A     13.225969   316A     13.403519   317A     13.534382  
     318A     13.870548   319A     14.131275   320A     14.208617  
     321A     14.234058   322A     14.242426   323A     14.351316  
     324A     14.528284   325A     14.567822   326A     14.628783  
     327A     14.647250   328A     14.994105   329A     15.249186  
     330A     16.038332   331A     16.302934   332A     16.388833  
     333A     16.675190   334A     18.255777   335A     18.416871  
     336A     18.635849   337A     19.045626   338A     20.377404  
     339A     22.275898   340A     22.632991   341A     24.774045  
     342A     26.036953   343A     44.610150   344A    124.681963  

    Final Occupation by Irrep:
              A 
    DOCC [     5 ]
    NA   [     5 ]
    NB   [     5 ]

  @DF-RKS Final Energy:   -76.38584936648223

   => Energetics <=

    Nuclear Repulsion Energy =              9.1780389409790644
    One-Electron Energy =                -123.0370625558432351
    Two-Electron Energy =                  44.4929569832794627
    DFT Exchange-Correlation Energy =      -7.0197827348975350
    Empirical Dispersion Energy =           0.0000000000000000
    VV10 Nonlocal Energy =                  0.0000000000000000
    Total Energy =                        -76.3858493664822475

Computation Completed


Properties will be evaluated at   0.000000,   0.000000,   0.000000 [a0]

Properties computed using the SCF density matrix


 Multipole Moments:

 ------------------------------------------------------------------------------------
     Multipole            Electronic (a.u.)      Nuclear  (a.u.)        Total (a.u.)
 ------------------------------------------------------------------------------------

 L = 1.  Multiply by 2.5417464519 to convert [e a0] to [Debye]
 Dipole X            :        -27.6025638           28.0137395            0.4111758
 Dipole Y            :         -0.8736235            0.2687651           -0.6048584
 Dipole Z            :         -0.0000000            0.0000000           -0.0000000
 Magnitude           :                                                    0.7313817

 ------------------------------------------------------------------------------------

*** tstop() called on Mac-mini.local at Tue Nov 18 11:46:52 2025
Module time:
	user time   =      12.76 seconds =       0.21 minutes
	system time =       0.39 seconds =       0.01 minutes
	total time  =         13 seconds =       0.22 minutes
Total time:
	user time   =      42.47 seconds =       0.71 minutes
	system time =       1.20 seconds =       0.02 minutes
	total time  =         44 seconds =       0.73 minutes

         ---------------------------------------------------------
               SAPT(DFT): Intermolecular Interaction Segment       

                   by Daniel G. A. Smith and Rob Parrish           
         ---------------------------------------------------------

  ==> Algorithm <==

   SAPT DFT Functional             PBE0
   Monomer A GRAC Shift        0.129990
   Monomer B GRAC Shift        0.129990
   Delta HF                        True
   JK Algorithm                      DF

  ==> Preparing SAPT Data Cache <== 

  ==> DiskDFJK: Density-Fitted J/K Matrices <==

    J tasked:                  Yes
    K tasked:                  Yes
    wK tasked:                  No
    OpenMP threads:              1
    Integrals threads:           1
    Memory [MiB]:              265
    Algorithm:                Disk
    Integral Cache:           SAVE
    Schwarz Cutoff:          1E-12
    Fitting Condition:       1E-10

   => Auxiliary Basis Set <=

  Basis Set: (AUG-CC-PVQZ AUX)
    Blend: AUG-CC-PVQZ-JKFIT
    Number of shells: 140
    Number of basis functions: 588
    Number of Cartesian functions: 800
    Spherical Harmonics?: true
    Max angular momentum: 5


  ==> E10 Electostatics <== 

    Elst10,r                        -12.89470897 [mEh]

  ==> E10 Exchange <== 

    Exch10(S^2)                      12.73471009 [mEh]
    Exch10                           12.83534000 [mEh]

  ==> E20 Induction <== 

   => Uncoupled Induction <= 

    Ind20,u (A<-B)                   -1.85343764 [mEh]
    Ind20,u (A->B)                   -3.60573825 [mEh]
    Ind20,u                          -5.45917589 [mEh]
    Exch-Ind20,u (A<-B)               1.33038205 [mEh]
    Exch-Ind20,u (A->B)               1.83421044 [mEh]
    Exch-Ind20,u                      3.16459249 [mEh]

   => Coupled Induction <= 

   ---------------------------------------------------
              SAPT Coupled Induction Solver           
   ---------------------------------------------------
    Maxiter             =          20
    Convergence         =   1.000E-06
   ---------------------------------------------------
     Iter       (A<-B)           (B->A)      Time [s]
   ---------------------------------------------------
    Guess    1.143664e-01     1.729020e-01          4
        1    3.539642e-02     6.578729e-02          8
        2    9.646228e-03     1.988830e-02         12
        3    1.331534e-03     1.880123e-03         17
        4    1.995959e-04     1.658934e-04         21
        5    2.107166e-05     2.198962e-05         25
        6    2.121177e-06     3.401855e-06         30
        7    2.453204e-07*    5.292458e-07*        34
   ---------------------------------------------------

    Ind20,r (A<-B)                   -1.87023602 [mEh]
    Ind20,r (A->B)                   -3.77293620 [mEh]
    Ind20,r                          -5.64317222 [mEh]
    Exch-Ind20,r (A<-B)               1.42457907 [mEh]
    Exch-Ind20,r (A->B)               2.04588967 [mEh]
    Exch-Ind20,r                      3.47046873 [mEh]
   => Loading Basis Set <=

    Name: (AUG-CC-PVQZ AUX)
    Role: RIFIT
    Keyword: DF_BASIS_MP2
    atoms 1, 4     entry O          line   332 file /Users/basirbinrafiq/miniforge3/envs/p4fix/share/psi4/basis/aug-cc-pvqz-ri.gbs 
    atoms 2-3, 5-6 entry H          line    30 file /Users/basirbinrafiq/miniforge3/envs/p4fix/share/psi4/basis/aug-cc-pvqz-ri.gbs 



  ==> E20 Dispersion (CHF FDDS) <== 

   Legendre Points:          10
   Lambda Shift:          0.300
   Fxc Kernal:             ALDA
   (P|Fxc|Q) Thresh:  1.000e-06
  DFHelper Memory: AOs need 0.588 GiB; user supplied 0.391 GiB. 
  Turning off in-core AOs.

  ==> DFHelper <==
    NBF:                             344
    NAux:                            656
    Schwarz Cutoff:                1E-12
    Mask sparsity (%):                 4
    DFH Avail. Memory [GiB]:       0.391
    OpenMP threads:                    1
    Algorithm:                    DIRECT
    AO Core:                       False
    MO Core:                       False
    Hold Metric:                   False
    Metric Power:                  0.000
    Fitting Condition:             1E-12
    Q Shell Max:                      11


  DFHelper Memory: AOs need 0.612 GiB; user supplied 0.391 GiB. 
  Turning off in-core AOs.


   => Time Integration <= 

       Omega       Weight       Disp20,u         Disp20   time [s]
   2.269e+01    6.667e-02      9.291e-05      8.663e-05          0
   4.147e+00    1.495e-01      1.773e-03      1.565e-03          1
   1.572e+00    2.191e-01      5.642e-03      4.676e-03          2
   7.589e-01    2.693e-01      8.408e-03      6.624e-03          2
   4.049e-01    2.955e-01      7.987e-03      6.165e-03          3
   2.223e-01    2.955e-01      5.909e-03      4.564e-03          4
   1.186e-01    2.693e-01      3.885e-03      3.013e-03          4
   5.727e-02    2.191e-01      2.395e-03      1.861e-03          5
   2.170e-02    1.495e-01      1.338e-03      1.041e-03          6
   3.966e-03    6.667e-02      5.340e-04      4.154e-04          6

    Disp20,u                         -6.04225713 [mEh]
    Disp20                           -4.77641417 [mEh]

  ==> E20 Dispersion (MP2) <== 


    Disp20 (MP2)                     -6.04329671 [mEh]
    Exch-Disp20,u                     1.15739680 [mEh]
    Scaling Scheme                    FIXED
    Scaling Factor                    0.770
    Est. Exch-Disp20,r                0.89119554 [mEh]

   SAPT(DFT) Results
  ---------------------------------------------------------------------------------------------------------
    Electrostatics                  -12.89470897 [mEh]     -8.09155204 [kcal/mol]    -33.85505373 [kJ/mol]
      Elst1,r                       -12.89470897 [mEh]     -8.09155204 [kcal/mol]    -33.85505373 [kJ/mol]

    Exchange                         12.83534000 [mEh]      8.05429745 [kcal/mol]     33.69918052 [kJ/mol]
      Exch1                          12.83534000 [mEh]      8.05429745 [kcal/mol]     33.69918052 [kJ/mol]
      Exch1(S^2)                     12.73471009 [mEh]      7.99115123 [kcal/mol]     33.43497673 [kJ/mol]

    Induction                        -3.63146861 [mEh]     -2.27878096 [kcal/mol]     -9.53441952 [kJ/mol]
      Ind2,r                         -5.64317222 [mEh]     -3.54114403 [kcal/mol]    -14.81614662 [kJ/mol]
      Exch-Ind2,r                     3.47046873 [mEh]      2.17775201 [kcal/mol]      9.11171441 [kJ/mol]
      Induction (A<-B)               -0.44565695 [mEh]     -0.27965396 [kcal/mol]     -1.17007216 [kJ/mol]
      Induction (A->B)               -1.72704654 [mEh]     -1.08373806 [kcal/mol]     -4.53436006 [kJ/mol]
      delta HF,r (2)                 -1.45876512 [mEh]     -0.91538894 [kcal/mol]     -3.82998731 [kJ/mol]

    Dispersion                       -3.88521863 [mEh]     -2.43801150 [kcal/mol]    -10.20064011 [kJ/mol]
      Disp2,r                        -4.77641417 [mEh]     -2.99724514 [kcal/mol]    -12.54047367 [kJ/mol]
      Disp2,u                        -6.04329671 [mEh]     -3.79222594 [kcal/mol]    -15.86667332 [kJ/mol]
      Est. Exch-Disp2,r               0.89119554 [mEh]      0.55923364 [kcal/mol]      2.33983356 [kJ/mol]
      Exch-Disp2,u                    1.15739680 [mEh]      0.72627746 [kcal/mol]      3.03874489 [kJ/mol]

    Total SAPT(DFT)                  -7.57605621 [mEh]     -4.75404704 [kcal/mol]    -19.89093284 [kJ/mol]
  ---------------------------------------------------------------------------------------------------------

*** tstop() called on Mac-mini.local at Tue Nov 18 11:48:02 2025
Module time:
	user time   =      78.17 seconds =       1.30 minutes
	system time =       2.56 seconds =       0.04 minutes
	total time  =         83 seconds =       1.38 minutes
Total time:
	user time   =     107.88 seconds =       1.80 minutes
	system time =       3.37 seconds =       0.06 minutes
	total time  =        114 seconds =       1.90 minutes

    Psi4 stopped on: Tuesday, 18 November 2025 11:48AM
    Psi4 wall time for execution: 0:01:53.60

*** Psi4 exiting successfully. Buy a developer a beer!
