
    -----------------------------------------------------------------------
          Psi4: An Open-Source Ab Initio Electronic Structure Package
                               Psi4 1.9.1 release

                         Git: Rev {} zzzzzzz 


    D. G. A. Smith, L. A. Burns, A. C. Simmonett, R. M. Parrish,
    M. C. Schieber, R. Galvelis, P. Kraus, H. Kruse, R. Di Remigio,
    A. Alenaizan, A. M. James, S. Lehtola, J. P. Misiewicz, M. Scheurer,
    R. A. Shaw, J. B. Schriber, Y. Xie, Z. L. Glick, D. A. Sirianni,
    J. S. O'Brien, J. M. Waldrop, A. Kumar, E. G. Hohenstein,
    B. P. Pritchard, B. R. Brooks, H. F. Schaefer III, A. Yu. Sokolov,
    K. Patkowski, A. E. DePrince III, U. Bozkaya, R. A. King,
    F. A. Evangelista, J. M. Turney, T. D. Crawford, C. D. Sherrill,
    J. Chem. Phys. 152(18) 184108 (2020). https://doi.org/10.1063/5.0006002

                            Additional Code Authors
    E. T. Seidl, C. L. Janssen, E. F. Valeev, M. L. Leininger,
    J. F. Gonthier, R. M. Richard, H. R. McAlexander, M. Saitow, X. Wang,
    P. Verma, M. H. Lechner, A. Jiang, S. Behnle, A. G. Heide,
    M. F. Herbst, and D. L. Poole

             Previous Authors, Complete List of Code Contributors,
                       and Citations for Specific Modules
    https://github.com/psi4/psi4/blob/master/codemeta.json
    https://github.com/psi4/psi4/graphs/contributors
    http://psicode.org/psi4manual/master/introduction.html#citing-psifour

    -----------------------------------------------------------------------


    Psi4 started on: Tuesday, 18 November 2025 01:21PM

    Process ID: 25839
    Host:       Mac-mini.local
    PSIDATADIR: /Users/basirbinrafiq/miniforge3/envs/p4fix/share/psi4
    Memory:     500.0 MiB
    Threads:    1
    
  ==> Input File <==

--------------------------------------------------------------------------
# Set memory inside the input file
memory 8 GB

molecule uracil_dimer {
    0 1
    N    -1.4888766    1.1619633     0.0000000 
    H    -0.4604549    1.2132001     0.0000000 
    C    -2.0557020   -0.1012312     0.0000000 
    O    -1.3529764   -1.1143219     0.0000000 
    C    -3.5024998   -0.1231361     0.0000000 
    H    -4.0084680   -1.0726395     0.0000000 
    C    -4.1808975    1.0432864     0.0000000 
    H    -5.2597746    1.0899796     0.0000000 
    N    -3.5337143    2.2446046     0.0000000 
    H    -4.0427155    3.1130731     0.0000000 
    C    -2.1503561    2.3762154     0.0000000 
    O    -1.5987212    3.4562309     0.0000000 
    --
    0 1
    N     3.3938504    0.0530281     0.0000000 
    H     3.8410941    0.9596013     0.0000000 
    C     4.2498981   -1.0615897     0.0000000 
    O     5.4593502   -0.9098852     0.0000000 
    C     3.5356797   -2.3237632     0.0000000 
    H     4.1022643   -3.2387939     0.0000000 
    C     2.1855107   -2.3275811     0.0000000 
    H     1.6085475   -3.2405458     0.0000000 
    N     1.4475193   -1.1767002     0.0000000 
    H     0.4211830   -1.1981430     0.0000000 
    C     2.0202902    0.0679648     0.0000000 
    O     1.3699693    1.1091831     0.0000000 

    units angstrom
    no_reorient
    symmetry c1
}

# NOTE: Using pVTZ as requested by the guide for Uracil
set basis aug-cc-pVTZ

energy('sapt2')
--------------------------------------------------------------------------

  Memory set to   7.451 GiB by Python driver.

Scratch directory: /tmp/
   => Loading Basis Set <=

    Name: AUG-CC-PVTZ
    Role: ORBITAL
    Keyword: BASIS
    atoms 1, 9, 13, 21                entry N          line   285 file /Users/basirbinrafiq/miniforge3/envs/p4fix/share/psi4/basis/aug-cc-pvtz.gbs 
    atoms 2, 6, 8, 10, 14, 18, 20, 22 entry H          line    40 file /Users/basirbinrafiq/miniforge3/envs/p4fix/share/psi4/basis/aug-cc-pvtz.gbs 
    atoms 3, 5, 7, 11, 15, 17, 19, 23 entry C          line   239 file /Users/basirbinrafiq/miniforge3/envs/p4fix/share/psi4/basis/aug-cc-pvtz.gbs 
    atoms 4, 12, 16, 24               entry O          line   331 file /Users/basirbinrafiq/miniforge3/envs/p4fix/share/psi4/basis/aug-cc-pvtz.gbs 

   => Loading Basis Set <=

    Name: AUG-CC-PVTZ
    Role: ORBITAL
    Keyword: BASIS
    atoms 1, 9, 13, 21                entry N          line   285 file /Users/basirbinrafiq/miniforge3/envs/p4fix/share/psi4/basis/aug-cc-pvtz.gbs 
    atoms 2, 6, 8, 10, 14, 18, 20, 22 entry H          line    40 file /Users/basirbinrafiq/miniforge3/envs/p4fix/share/psi4/basis/aug-cc-pvtz.gbs 
    atoms 3, 5, 7, 11, 15, 17, 19, 23 entry C          line   239 file /Users/basirbinrafiq/miniforge3/envs/p4fix/share/psi4/basis/aug-cc-pvtz.gbs 
    atoms 4, 12, 16, 24               entry O          line   331 file /Users/basirbinrafiq/miniforge3/envs/p4fix/share/psi4/basis/aug-cc-pvtz.gbs 


  //>>>>>>>>>>>>>>>>>>>>>>>>>>>>>>>>>>>//
  //              Dimer HF             //
  //<<<<<<<<<<<<<<<<<<<<<<<<<<<<<<<<<<<//

   => Libint2 <=

    Primary   basis highest AM E, G, H:  6, 6, 3
    Auxiliary basis highest AM E, G, H:  7, 7, 4
    Onebody   basis highest AM E, G, H:  -, -, -
    Solid Harmonics ordering:            Gaussian

*** tstart() called on Mac-mini.local
*** at Tue Nov 18 13:21:28 2025

   => Loading Basis Set <=

    Name: AUG-CC-PVTZ
    Role: ORBITAL
    Keyword: BASIS
    atoms 1, 9, 13, 21                entry N          line   285 file /Users/basirbinrafiq/miniforge3/envs/p4fix/share/psi4/basis/aug-cc-pvtz.gbs 
    atoms 2, 6, 8, 10, 14, 18, 20, 22 entry H          line    40 file /Users/basirbinrafiq/miniforge3/envs/p4fix/share/psi4/basis/aug-cc-pvtz.gbs 
    atoms 3, 5, 7, 11, 15, 17, 19, 23 entry C          line   239 file /Users/basirbinrafiq/miniforge3/envs/p4fix/share/psi4/basis/aug-cc-pvtz.gbs 
    atoms 4, 12, 16, 24               entry O          line   331 file /Users/basirbinrafiq/miniforge3/envs/p4fix/share/psi4/basis/aug-cc-pvtz.gbs 


         ---------------------------------------------------------
                                   SCF
               by Justin Turney, Rob Parrish, Andy Simmonett
                          and Daniel G. A. Smith
                              RHF Reference
                        1 Threads,   7629 MiB Core
         ---------------------------------------------------------

  ==> Geometry <==

    Molecular point group: c1
    Full point group: Cs

    Geometry (in Angstrom), charge = 0, multiplicity = 1:

       Center              X                  Y                   Z               Mass       
    ------------   -----------------  -----------------  -----------------  -----------------
         N           -1.742741605765     0.979761768554     0.000000000000    14.003074004430
         H           -0.714319905765     1.030998568554     0.000000000000     1.007825032230
         C           -2.309567005765    -0.283432731446     0.000000000000    12.000000000000
         O           -1.606841405765    -1.296523431446     0.000000000000    15.994914619570
         C           -3.756364805765    -0.305337631446     0.000000000000    12.000000000000
         H           -4.262333005765    -1.254841031446     0.000000000000     1.007825032230
         C           -4.434762505765     0.861084868554     0.000000000000    12.000000000000
         H           -5.513639605765     0.907778068554     0.000000000000     1.007825032230
         N           -3.787579305765     2.062403068554     0.000000000000    14.003074004430
         H           -4.296580505765     2.930871568554     0.000000000000     1.007825032230
         C           -2.404221105765     2.194013868554     0.000000000000    12.000000000000
         O           -1.852586205765     3.274029368554     0.000000000000    15.994914619570
         N            3.139985394235    -0.129173431446     0.000000000000    14.003074004430
         H            3.587229094235     0.777399768554     0.000000000000     1.007825032230
         C            3.996033094235    -1.243791231446     0.000000000000    12.000000000000
         O            5.205485194235    -1.092086731446     0.000000000000    15.994914619570
         C            3.281814694235    -2.505964731446     0.000000000000    12.000000000000
         H            3.848399294235    -3.420995431446     0.000000000000     1.007825032230
         C            1.931645694235    -2.509782631446     0.000000000000    12.000000000000
         H            1.354682494235    -3.422747331446     0.000000000000     1.007825032230
         N            1.193654294235    -1.358901731446     0.000000000000    14.003074004430
         H            0.167317994235    -1.380344531446     0.000000000000     1.007825032230
         C            1.766425194235    -0.114236731446     0.000000000000    12.000000000000
         O            1.116104294235     0.926981568554     0.000000000000    15.994914619570

  Running in c1 symmetry.

  Rotational constants: A =      0.04683  B =      0.00753  C =      0.00649 [cm^-1]
  Rotational constants: A =   1404.05889  B =    225.85859  C =    194.56124 [MHz]
  Nuclear repulsion = 1040.005332044530405

  Charge       = 0
  Multiplicity = 1
  Electrons    = 116
  Nalpha       = 58
  Nbeta        = 58

  ==> Algorithm <==

  SCF Algorithm Type is DF.
  DIIS enabled.
  MOM disabled.
  Fractional occupation disabled.
  Guess Type is SAD.
  Energy threshold   = 1.00e-08
  Density threshold  = 1.00e-08
  Integral threshold = 1.00e-12

  ==> Primary Basis <==

  Basis Set: AUG-CC-PVTZ
    Blend: AUG-CC-PVTZ
    Number of shells: 296
    Number of basis functions: 920
    Number of Cartesian functions: 1080
    Spherical Harmonics?: true
    Max angular momentum: 3

   => Loading Basis Set <=

    Name: (AUG-CC-PVTZ AUX)
    Role: JKFIT
    Keyword: DF_BASIS_SCF
    atoms 1, 9, 13, 21                entry N          line   224 file /Users/basirbinrafiq/miniforge3/envs/p4fix/share/psi4/basis/aug-cc-pvtz-jkfit.gbs 
    atoms 2, 6, 8, 10, 14, 18, 20, 22 entry H          line    70 file /Users/basirbinrafiq/miniforge3/envs/p4fix/share/psi4/basis/aug-cc-pvtz-jkfit.gbs 
    atoms 3, 5, 7, 11, 15, 17, 19, 23 entry C          line   162 file /Users/basirbinrafiq/miniforge3/envs/p4fix/share/psi4/basis/aug-cc-pvtz-jkfit.gbs 
    atoms 4, 12, 16, 24               entry O          line   286 file /Users/basirbinrafiq/miniforge3/envs/p4fix/share/psi4/basis/aug-cc-pvtz-jkfit.gbs 

  ==> Integral Setup <==

  ==> DiskDFJK: Density-Fitted J/K Matrices <==

    J tasked:                  Yes
    K tasked:                  Yes
    wK tasked:                  No
    OpenMP threads:              1
    Integrals threads:           1
    Memory [MiB]:             5722
    Algorithm:                Core
    Integral Cache:           SAVE
    Schwarz Cutoff:          1E-12
    Fitting Condition:       1E-10

   => Auxiliary Basis Set <=

  Basis Set: (AUG-CC-PVTZ AUX)
    Blend: AUG-CC-PVTZ-JKFIT
    Number of shells: 592
    Number of basis functions: 2032
    Number of Cartesian functions: 2536
    Spherical Harmonics?: true
    Max angular momentum: 4

  Minimum eigenvalue in the overlap matrix is 1.6742870490E-06.
  Reciprocal condition number of the overlap matrix is 9.5894979235E-08.
    Using symmetric orthogonalization.

  ==> Pre-Iterations <==

  SCF Guess: Superposition of Atomic Densities via on-the-fly atomic UHF (no occupation information).

   -------------------------
    Irrep   Nso     Nmo    
   -------------------------
     A        920     920 
   -------------------------
    Total     920     920
   -------------------------

  ==> Iterations <==

                           Total Energy        Delta E     RMS |[F,P]|

   @DF-RHF iter SAD:  -824.19181065593261   -8.24192e+02   0.00000e+00 
   @DF-RHF iter   1:  -824.80826490836125   -6.16454e-01   1.11188e-03 ADIIS/DIIS
   @DF-RHF iter   2:  -825.12364176576455   -3.15377e-01   7.00301e-04 ADIIS/DIIS
   @DF-RHF iter   3:  -825.25670500448075   -1.33063e-01   1.35435e-04 ADIIS/DIIS
   @DF-RHF iter   4:  -825.26469612854021   -7.99112e-03   5.44973e-05 DIIS
   @DF-RHF iter   5:  -825.26629783984868   -1.60171e-03   1.08802e-05 DIIS
   @DF-RHF iter   6:  -825.26649094135496   -1.93102e-04   5.36692e-06 DIIS
   @DF-RHF iter   7:  -825.26652501720787   -3.40759e-05   2.13126e-06 DIIS
   @DF-RHF iter   8:  -825.26653089964884   -5.88244e-06   6.87254e-07 DIIS
   @DF-RHF iter   9:  -825.26653132928311   -4.29634e-07   3.00327e-07 DIIS
   @DF-RHF iter  10:  -825.26653142193800   -9.26549e-08   1.09509e-07 DIIS
   @DF-RHF iter  11:  -825.26653143607950   -1.41415e-08   3.81594e-08 DIIS
   @DF-RHF iter  12:  -825.26653143747740   -1.39789e-09   1.35650e-08 DIIS
   @DF-RHF iter  13:  -825.26653143763360   -1.56206e-10   5.29603e-09 DIIS
  Energy and wave function converged.


  ==> Post-Iterations <==

    Orbital Energies [Eh]
    ---------------------

    Doubly Occupied:                                                      

       1A    -20.554909     2A    -20.545523     3A    -20.545472  
       4A    -20.533495     5A    -15.647816     6A    -15.622485  
       7A    -15.621976     8A    -15.621740     9A    -11.417595  
      10A    -11.414583    11A    -11.393637    12A    -11.372613  
      13A    -11.347538    14A    -11.327532    15A    -11.259221  
      16A    -11.243766    17A     -1.437750    18A     -1.431163  
      19A     -1.408059    20A     -1.390789    21A     -1.316416  
      22A     -1.303111    23A     -1.247927    24A     -1.237063  
      25A     -1.093219    26A     -1.077018    27A     -0.938220  
      28A     -0.923548    29A     -0.906277    30A     -0.892351  
      31A     -0.810133    32A     -0.797492    33A     -0.769987  
      34A     -0.756538    35A     -0.722894    36A     -0.710163  
      37A     -0.688330    38A     -0.670565    39A     -0.668746  
      40A     -0.661453    41A     -0.653763    42A     -0.645794  
      43A     -0.623271    44A     -0.607306    45A     -0.599731  
      46A     -0.590845    47A     -0.581864    48A     -0.563008  
      49A     -0.527379    50A     -0.514448    51A     -0.494404  
      52A     -0.476127    53A     -0.461280    54A     -0.442440  
      55A     -0.441497    56A     -0.434152    57A     -0.374291  
      58A     -0.357236  

    Virtual:                                                              

      59A      0.011480    60A      0.024738    61A      0.032472  
      62A      0.040602    63A      0.044569    64A      0.053328  
      65A      0.053863    66A      0.058021    67A      0.065671  
      68A      0.067463    69A      0.075683    70A      0.086689  
      71A      0.087240    72A      0.091463    73A      0.095797  
      74A      0.097791    75A      0.098477    76A      0.102237  
      77A      0.104971    78A      0.107793    79A      0.117190  
      80A      0.121985    81A      0.122771    82A      0.125732  
      83A      0.128941    84A      0.130717    85A      0.134108  
      86A      0.138000    87A      0.140055    88A      0.146544  
      89A      0.149061    90A      0.150364    91A      0.153888  
      92A      0.156779    93A      0.162369    94A      0.164519  
      95A      0.165081    96A      0.177538    97A      0.182198  
      98A      0.182572    99A      0.193187   100A      0.197462  
     101A      0.203937   102A      0.208826   103A      0.209761  
     104A      0.219659   105A      0.220912   106A      0.221124  
     107A      0.225895   108A      0.229482   109A      0.233622  
     110A      0.243847   111A      0.249164   112A      0.254952  
     113A      0.255112   114A      0.261337   115A      0.263810  
     116A      0.268121   117A      0.269253   118A      0.275698  
     119A      0.276229   120A      0.277666   121A      0.280784  
     122A      0.286367   123A      0.288904   124A      0.293457  
     125A      0.295302   126A      0.298496   127A      0.300827  
     128A      0.306572   129A      0.307602   130A      0.310828  
     131A      0.312876   132A      0.322861   133A      0.329132  
     134A      0.334717   135A      0.337040   136A      0.338775  
     137A      0.340783   138A      0.344435   139A      0.344797  
     140A      0.345459   141A      0.351514   142A      0.364333  
     143A      0.367551   144A      0.368686   145A      0.370592  
     146A      0.374734   147A      0.379653   148A      0.383689  
     149A      0.385832   150A      0.390371   151A      0.399413  
     152A      0.400429   153A      0.408470   154A      0.409229  
     155A      0.410613   156A      0.417476   157A      0.421677  
     158A      0.426631   159A      0.432212   160A      0.434337  
     161A      0.435313   162A      0.438699   163A      0.447229  
     164A      0.447474   165A      0.455813   166A      0.457016  
     167A      0.458356   168A      0.459475   169A      0.466447  
     170A      0.467742   171A      0.467842   172A      0.474814  
     173A      0.476359   174A      0.480644   175A      0.485436  
     176A      0.490754   177A      0.494221   178A      0.494243  
     179A      0.503626   180A      0.505887   181A      0.509416  
     182A      0.512578   183A      0.514481   184A      0.516598  
     185A      0.523485   186A      0.530625   187A      0.531618  
     188A      0.534542   189A      0.539062   190A      0.549596  
     191A      0.554318   192A      0.563961   193A      0.568406  
     194A      0.576132   195A      0.576619   196A      0.580061  
     197A      0.590781   198A      0.596470   199A      0.605253  
     200A      0.612542   201A      0.618242   202A      0.621638  
     203A      0.623178   204A      0.627799   205A      0.634270  
     206A      0.637308   207A      0.641544   208A      0.644216  
     209A      0.648259   210A      0.649503   211A      0.659043  
     212A      0.659277   213A      0.661332   214A      0.665919  
     215A      0.675669   216A      0.676981   217A      0.681840  
     218A      0.685628   219A      0.691789   220A      0.694380  
     221A      0.698805   222A      0.710098   223A      0.717285  
     224A      0.722087   225A      0.724279   226A      0.732435  
     227A      0.736661   228A      0.739206   229A      0.742229  
     230A      0.753522   231A      0.761071   232A      0.767889  
     233A      0.769303   234A      0.769545   235A      0.773619  
     236A      0.778146   237A      0.779626   238A      0.791648  
     239A      0.792082   240A      0.799247   241A      0.807488  
     242A      0.808035   243A      0.809868   244A      0.823668  
     245A      0.826806   246A      0.827828   247A      0.844488  
     248A      0.846111   249A      0.849923   250A      0.859611  
     251A      0.862265   252A      0.865439   253A      0.870509  
     254A      0.878048   255A      0.885883   256A      0.891235  
     257A      0.893958   258A      0.895503   259A      0.895708  
     260A      0.901021   261A      0.909090   262A      0.912039  
     263A      0.914340   264A      0.919399   265A      0.921212  
     266A      0.931884   267A      0.932437   268A      0.935991  
     269A      0.940712   270A      0.943131   271A      0.946245  
     272A      0.951336   273A      0.953454   274A      0.960339  
     275A      0.963674   276A      0.965948   277A      0.973897  
     278A      0.978655   279A      0.980234   280A      0.986274  
     281A      0.996381   282A      0.996819   283A      1.005956  
     284A      1.011046   285A      1.015320   286A      1.018019  
     287A      1.018605   288A      1.021167   289A      1.029980  
     290A      1.031818   291A      1.033988   292A      1.037009  
     293A      1.045270   294A      1.058377   295A      1.059183  
     296A      1.066633   297A      1.072748   298A      1.073809  
     299A      1.079994   300A      1.086060   301A      1.094139  
     302A      1.097938   303A      1.103413   304A      1.110509  
     305A      1.114478   306A      1.116464   307A      1.125172  
     308A      1.128834   309A      1.128844   310A      1.135648  
     311A      1.146428   312A      1.146843   313A      1.152135  
     314A      1.152999   315A      1.159471   316A      1.161055  
     317A      1.168175   318A      1.176794   319A      1.179003  
     320A      1.181788   321A      1.187258   322A      1.193014  
     323A      1.195351   324A      1.201902   325A      1.203506  
     326A      1.213405   327A      1.215404   328A      1.221588  
     329A      1.225453   330A      1.228115   331A      1.238565  
     332A      1.241271   333A      1.248156   334A      1.251247  
     335A      1.255950   336A      1.263443   337A      1.265974  
     338A      1.275792   339A      1.287289   340A      1.292657  
     341A      1.298288   342A      1.299145   343A      1.307091  
     344A      1.308135   345A      1.326079   346A      1.326420  
     347A      1.330500   348A      1.337636   349A      1.337975  
     350A      1.358968   351A      1.366896   352A      1.370285  
     353A      1.377322   354A      1.382658   355A      1.389251  
     356A      1.397234   357A      1.408401   358A      1.415330  
     359A      1.420414   360A      1.420779   361A      1.423525  
     362A      1.431005   363A      1.436855   364A      1.443479  
     365A      1.443514   366A      1.448852   367A      1.455928  
     368A      1.464388   369A      1.467021   370A      1.478599  
     371A      1.481048   372A      1.486113   373A      1.486825  
     374A      1.491722   375A      1.492047   376A      1.499473  
     377A      1.501385   378A      1.508976   379A      1.517946  
     380A      1.525412   381A      1.535201   382A      1.540335  
     383A      1.546076   384A      1.548237   385A      1.551348  
     386A      1.560860   387A      1.564568   388A      1.576712  
     389A      1.582724   390A      1.585439   391A      1.597618  
     392A      1.602247   393A      1.602624   394A      1.608688  
     395A      1.609811   396A      1.614035   397A      1.632371  
     398A      1.634596   399A      1.644003   400A      1.644817  
     401A      1.658637   402A      1.664760   403A      1.672032  
     404A      1.675160   405A      1.683696   406A      1.702321  
     407A      1.702508   408A      1.704638   409A      1.719709  
     410A      1.721810   411A      1.728074   412A      1.732313  
     413A      1.736007   414A      1.741496   415A      1.747139  
     416A      1.757334   417A      1.759684   418A      1.771006  
     419A      1.778967   420A      1.788414   421A      1.795136  
     422A      1.797994   423A      1.809230   424A      1.821514  
     425A      1.824865   426A      1.836605   427A      1.854352  
     428A      1.861170   429A      1.870977   430A      1.881161  
     431A      1.887111   432A      1.891009   433A      1.894474  
     434A      1.912857   435A      1.913760   436A      1.923126  
     437A      1.928237   438A      1.931747   439A      1.944911  
     440A      1.947450   441A      1.952329   442A      1.958902  
     443A      1.971882   444A      1.973482   445A      1.978781  
     446A      1.980078   447A      2.007933   448A      2.019455  
     449A      2.039023   450A      2.041849   451A      2.052964  
     452A      2.070270   453A      2.080516   454A      2.088568  
     455A      2.101597   456A      2.105531   457A      2.126426  
     458A      2.135905   459A      2.137240   460A      2.144773  
     461A      2.155862   462A      2.157621   463A      2.161985  
     464A      2.167449   465A      2.188133   466A      2.193477  
     467A      2.193971   468A      2.206845   469A      2.214953  
     470A      2.220968   471A      2.228666   472A      2.234356  
     473A      2.246713   474A      2.254898   475A      2.263595  
     476A      2.269521   477A      2.281027   478A      2.283600  
     479A      2.297009   480A      2.298149   481A      2.306132  
     482A      2.313716   483A      2.313900   484A      2.325941  
     485A      2.348524   486A      2.358167   487A      2.375825  
     488A      2.383404   489A      2.389974   490A      2.398801  
     491A      2.410089   492A      2.415673   493A      2.418031  
     494A      2.432146   495A      2.450658   496A      2.464295  
     497A      2.479233   498A      2.484715   499A      2.485743  
     500A      2.492565   501A      2.496445   502A      2.504638  
     503A      2.514139   504A      2.518174   505A      2.519656  
     506A      2.529633   507A      2.532756   508A      2.548269  
     509A      2.553524   510A      2.557478   511A      2.559725  
     512A      2.566831   513A      2.573078   514A      2.583301  
     515A      2.586267   516A      2.608555   517A      2.615052  
     518A      2.631702   519A      2.636572   520A      2.641467  
     521A      2.644294   522A      2.656673   523A      2.664058  
     524A      2.669807   525A      2.675494   526A      2.679837  
     527A      2.683598   528A      2.689503   529A      2.700135  
     530A      2.704763   531A      2.717610   532A      2.723550  
     533A      2.727266   534A      2.731857   535A      2.755995  
     536A      2.758544   537A      2.775717   538A      2.776141  
     539A      2.785898   540A      2.801348   541A      2.822621  
     542A      2.828140   543A      2.828795   544A      2.844868  
     545A      2.849562   546A      2.849959   547A      2.868317  
     548A      2.884394   549A      2.888118   550A      2.901793  
     551A      2.908548   552A      2.917776   553A      2.930755  
     554A      2.942952   555A      2.950621   556A      2.968727  
     557A      2.981665   558A      2.983242   559A      2.984506  
     560A      2.999003   561A      2.999500   562A      3.011603  
     563A      3.026024   564A      3.033260   565A      3.064434  
     566A      3.067622   567A      3.069387   568A      3.071432  
     569A      3.083271   570A      3.104225   571A      3.129909  
     572A      3.150490   573A      3.155277   574A      3.155824  
     575A      3.178836   576A      3.201171   577A      3.220735  
     578A      3.226759   579A      3.235961   580A      3.252728  
     581A      3.272050   582A      3.274008   583A      3.278657  
     584A      3.289743   585A      3.300226   586A      3.306749  
     587A      3.313112   588A      3.324253   589A      3.341026  
     590A      3.349158   591A      3.374013   592A      3.391161  
     593A      3.391219   594A      3.395574   595A      3.402556  
     596A      3.436731   597A      3.442431   598A      3.451328  
     599A      3.457931   600A      3.484926   601A      3.485821  
     602A      3.490513   603A      3.497873   604A      3.503487  
     605A      3.527418   606A      3.531299   607A      3.541907  
     608A      3.547333   609A      3.558448   610A      3.566977  
     611A      3.595788   612A      3.607920   613A      3.626585  
     614A      3.626903   615A      3.637952   616A      3.643307  
     617A      3.647872   618A      3.657050   619A      3.657251  
     620A      3.674913   621A      3.687329   622A      3.702100  
     623A      3.710657   624A      3.712482   625A      3.723015  
     626A      3.749003   627A      3.751541   628A      3.759621  
     629A      3.770011   630A      3.780833   631A      3.787879  
     632A      3.793030   633A      3.806757   634A      3.809750  
     635A      3.827747   636A      3.828431   637A      3.842794  
     638A      3.858714   639A      3.869795   640A      3.876645  
     641A      3.890304   642A      3.894816   643A      3.904005  
     644A      3.927491   645A      3.936789   646A      3.947350  
     647A      3.969363   648A      3.973942   649A      3.977909  
     650A      3.983956   651A      3.988993   652A      4.009684  
     653A      4.014708   654A      4.023065   655A      4.043447  
     656A      4.052620   657A      4.067284   658A      4.089478  
     659A      4.101545   660A      4.110965   661A      4.115305  
     662A      4.117573   663A      4.125678   664A      4.134938  
     665A      4.139374   666A      4.147737   667A      4.164870  
     668A      4.186503   669A      4.189154   670A      4.204596  
     671A      4.229047   672A      4.231273   673A      4.248542  
     674A      4.251735   675A      4.265237   676A      4.272962  
     677A      4.278448   678A      4.281820   679A      4.293282  
     680A      4.302003   681A      4.304666   682A      4.316063  
     683A      4.324329   684A      4.328460   685A      4.339141  
     686A      4.354477   687A      4.366210   688A      4.372640  
     689A      4.379338   690A      4.391431   691A      4.394054  
     692A      4.395422   693A      4.411708   694A      4.433013  
     695A      4.434630   696A      4.452164   697A      4.453133  
     698A      4.462706   699A      4.466946   700A      4.479509  
     701A      4.479727   702A      4.484529   703A      4.490177  
     704A      4.502184   705A      4.556007   706A      4.570705  
     707A      4.594052   708A      4.617385   709A      4.617411  
     710A      4.627567   711A      4.643953   712A      4.667425  
     713A      4.669644   714A      4.671945   715A      4.685965  
     716A      4.694169   717A      4.721630   718A      4.742390  
     719A      4.747341   720A      4.758652   721A      4.764084  
     722A      4.772583   723A      4.780328   724A      4.783150  
     725A      4.798900   726A      4.805380   727A      4.822562  
     728A      4.831700   729A      4.839225   730A      4.848385  
     731A      4.882054   732A      4.915384   733A      4.922412  
     734A      4.924760   735A      4.949746   736A      4.960513  
     737A      4.966487   738A      4.969055   739A      4.973980  
     740A      4.982638   741A      5.022542   742A      5.042753  
     743A      5.047240   744A      5.071719   745A      5.074780  
     746A      5.090327   747A      5.097613   748A      5.114751  
     749A      5.117570   750A      5.118753   751A      5.131890  
     752A      5.133005   753A      5.146546   754A      5.150400  
     755A      5.162707   756A      5.191787   757A      5.196558  
     758A      5.209827   759A      5.229699   760A      5.241219  
     761A      5.252251   762A      5.260776   763A      5.313707  
     764A      5.320516   765A      5.327734   766A      5.333631  
     767A      5.343727   768A      5.408039   769A      5.432245  
     770A      5.440624   771A      5.451376   772A      5.468610  
     773A      5.495957   774A      5.501524   775A      5.526090  
     776A      5.529155   777A      5.537224   778A      5.543448  
     779A      5.547601   780A      5.550992   781A      5.564398  
     782A      5.578140   783A      5.612453   784A      5.619196  
     785A      5.621953   786A      5.624651   787A      5.649409  
     788A      5.682212   789A      5.695516   790A      5.698861  
     791A      5.731714   792A      5.733282   793A      5.742369  
     794A      5.749983   795A      5.789296   796A      5.797661  
     797A      5.825245   798A      5.827135   799A      5.835315  
     800A      5.843866   801A      5.848877   802A      5.859948  
     803A      5.863401   804A      5.919944   805A      5.930296  
     806A      5.941750   807A      5.945599   808A      5.957087  
     809A      6.014670   810A      6.021301   811A      6.044161  
     812A      6.046968   813A      6.061835   814A      6.093558  
     815A      6.093942   816A      6.109124   817A      6.118283  
     818A      6.142991   819A      6.160314   820A      6.177391  
     821A      6.178726   822A      6.209280   823A      6.276420  
     824A      6.297910   825A      6.319963   826A      6.327591  
     827A      6.335378   828A      6.403075   829A      6.545836  
     830A      6.561563   831A      6.574787   832A      6.606251  
     833A      6.639669   834A      6.664924   835A      6.668709  
     836A      6.675453   837A      6.685824   838A      6.726712  
     839A      6.742360   840A      6.750747   841A      6.782001  
     842A      6.826517   843A      6.832434   844A      6.849023  
     845A      6.856097   846A      6.856664   847A      6.874725  
     848A      6.875872   849A      6.894103   850A      6.902839  
     851A      6.943951   852A      6.977235   853A      6.977650  
     854A      6.979283   855A      6.988993   856A      7.012539  
     857A      7.032537   858A      7.086806   859A      7.098904  
     860A      7.109735   861A      7.111455   862A      7.140354  
     863A      7.143615   864A      7.158065   865A      7.162658  
     866A      7.176620   867A      7.251120   868A      7.262736  
     869A      7.272487   870A      7.355458   871A      7.379318  
     872A      7.382535   873A      7.389588   874A      7.395965  
     875A      7.401186   876A      7.408130   877A      7.422546  
     878A      7.446040   879A      7.448318   880A      7.529184  
     881A      7.535574   882A      7.599313   883A      7.644921  
     884A      7.655872   885A      7.693574   886A      7.696877  
     887A      7.698822   888A      7.734278   889A      7.757860  
     890A      7.840449   891A      7.863444   892A      7.888951  
     893A      7.902849   894A      7.909018   895A      7.952228  
     896A      8.001466   897A      8.019064   898A      8.039979  
     899A      8.048696   900A      8.093617   901A      8.135479  
     902A      8.158986   903A      8.365458   904A      8.407484  
     905A     16.186344   906A     16.276868   907A     16.504873  
     908A     16.579673   909A     16.653245   910A     17.190072  
     911A     17.546126   912A     18.019895   913A     18.702011  
     914A     18.869126   915A     19.855950   916A     20.024463  
     917A     20.095418   918A     20.960199   919A     20.975670  
     920A     21.326153  

    Final Occupation by Irrep:
              A 
    DOCC [    58 ]
    NA   [    58 ]
    NB   [    58 ]

  @DF-RHF Final Energy:  -825.26653143763360

   => Energetics <=

    Nuclear Repulsion Energy =           1040.0053320445304053
    One-Electron Energy =               -3193.1078153672920052
    Two-Electron Energy =                1327.8359518851279972
    Total Energy =                       -825.2665314376336028

Computation Completed


Properties will be evaluated at   0.000000,   0.000000,   0.000000 [a0]

Properties computed using the SCF density matrix


 Multipole Moments:

 ------------------------------------------------------------------------------------
     Multipole            Electronic (a.u.)      Nuclear  (a.u.)        Total (a.u.)
 ------------------------------------------------------------------------------------

 L = 1.  Multiply by 2.5417464519 to convert [e a0] to [Debye]
 Dipole X            :          2.0545026           -5.4475100           -3.3930075
 Dipole Y            :          2.7558048           -3.5880762           -0.8322714
 Dipole Z            :          0.0000000            0.0000000            0.0000000
 Magnitude           :                                                    3.4935906

 ------------------------------------------------------------------------------------

*** tstop() called on Mac-mini.local at Tue Nov 18 13:25:22 2025
Module time:
	user time   =     228.06 seconds =       3.80 minutes
	system time =       3.57 seconds =       0.06 minutes
	total time  =        234 seconds =       3.90 minutes
Total time:
	user time   =     228.06 seconds =       3.80 minutes
	system time =       3.57 seconds =       0.06 minutes
	total time  =        234 seconds =       3.90 minutes

  //>>>>>>>>>>>>>>>>>>>>>>>>>>>>>>>>>>>//
  //            Monomer A HF           //
  //<<<<<<<<<<<<<<<<<<<<<<<<<<<<<<<<<<<//

   => Libint2 <=

    Primary   basis highest AM E, G, H:  6, 6, 3
    Auxiliary basis highest AM E, G, H:  7, 7, 4
    Onebody   basis highest AM E, G, H:  -, -, -
    Solid Harmonics ordering:            Gaussian

*** tstart() called on Mac-mini.local
*** at Tue Nov 18 13:25:22 2025

   => Loading Basis Set <=

    Name: AUG-CC-PVTZ
    Role: ORBITAL
    Keyword: BASIS
    atoms 1, 9, 13, 21                entry N          line   285 file /Users/basirbinrafiq/miniforge3/envs/p4fix/share/psi4/basis/aug-cc-pvtz.gbs 
    atoms 2, 6, 8, 10, 14, 18, 20, 22 entry H          line    40 file /Users/basirbinrafiq/miniforge3/envs/p4fix/share/psi4/basis/aug-cc-pvtz.gbs 
    atoms 3, 5, 7, 11, 15, 17, 19, 23 entry C          line   239 file /Users/basirbinrafiq/miniforge3/envs/p4fix/share/psi4/basis/aug-cc-pvtz.gbs 
    atoms 4, 12, 16, 24               entry O          line   331 file /Users/basirbinrafiq/miniforge3/envs/p4fix/share/psi4/basis/aug-cc-pvtz.gbs 


         ---------------------------------------------------------
                                   SCF
               by Justin Turney, Rob Parrish, Andy Simmonett
                          and Daniel G. A. Smith
                              RHF Reference
                        1 Threads,   7629 MiB Core
         ---------------------------------------------------------

  ==> Geometry <==

    Molecular point group: c1
    Full point group: Cs

    Geometry (in Angstrom), charge = 0, multiplicity = 1:

       Center              X                  Y                   Z               Mass       
    ------------   -----------------  -----------------  -----------------  -----------------
         N           -1.742741605765     0.979761768554     0.000000000000    14.003074004430
         H           -0.714319905765     1.030998568554     0.000000000000     1.007825032230
         C           -2.309567005765    -0.283432731446     0.000000000000    12.000000000000
         O           -1.606841405765    -1.296523431446     0.000000000000    15.994914619570
         C           -3.756364805765    -0.305337631446     0.000000000000    12.000000000000
         H           -4.262333005765    -1.254841031446     0.000000000000     1.007825032230
         C           -4.434762505765     0.861084868554     0.000000000000    12.000000000000
         H           -5.513639605765     0.907778068554     0.000000000000     1.007825032230
         N           -3.787579305765     2.062403068554     0.000000000000    14.003074004430
         H           -4.296580505765     2.930871568554     0.000000000000     1.007825032230
         C           -2.404221105765     2.194013868554     0.000000000000    12.000000000000
         O           -1.852586205765     3.274029368554     0.000000000000    15.994914619570
      Gh(N)           3.139985394235    -0.129173431446     0.000000000000    14.003074004430
      Gh(H)           3.587229094235     0.777399768554     0.000000000000     1.007825032230
      Gh(C)           3.996033094235    -1.243791231446     0.000000000000    12.000000000000
      Gh(O)           5.205485194235    -1.092086731446     0.000000000000    15.994914619570
      Gh(C)           3.281814694235    -2.505964731446     0.000000000000    12.000000000000
      Gh(H)           3.848399294235    -3.420995431446     0.000000000000     1.007825032230
      Gh(C)           1.931645694235    -2.509782631446     0.000000000000    12.000000000000
      Gh(H)           1.354682494235    -3.422747331446     0.000000000000     1.007825032230
      Gh(N)           1.193654294235    -1.358901731446     0.000000000000    14.003074004430
      Gh(H)           0.167317994235    -1.380344531446     0.000000000000     1.007825032230
      Gh(C)           1.766425194235    -0.114236731446     0.000000000000    12.000000000000
      Gh(O)           1.116104294235     0.926981568554     0.000000000000    15.994914619570

  Running in c1 symmetry.

  Rotational constants: A =      0.04683  B =      0.00753  C =      0.00649 [cm^-1]
  Rotational constants: A =   1404.05889  B =    225.85859  C =    194.56124 [MHz]
  Nuclear repulsion =  357.252737862049457

  Charge       = 0
  Multiplicity = 1
  Electrons    = 58
  Nalpha       = 29
  Nbeta        = 29

  ==> Algorithm <==

  SCF Algorithm Type is DF.
  DIIS enabled.
  MOM disabled.
  Fractional occupation disabled.
  Guess Type is SAD.
  Energy threshold   = 1.00e-08
  Density threshold  = 1.00e-08
  Integral threshold = 1.00e-12

  ==> Primary Basis <==

  Basis Set: AUG-CC-PVTZ
    Blend: AUG-CC-PVTZ
    Number of shells: 296
    Number of basis functions: 920
    Number of Cartesian functions: 1080
    Spherical Harmonics?: true
    Max angular momentum: 3

   => Loading Basis Set <=

    Name: (AUG-CC-PVTZ AUX)
    Role: JKFIT
    Keyword: DF_BASIS_SCF
    atoms 1, 9, 13, 21                entry N          line   224 file /Users/basirbinrafiq/miniforge3/envs/p4fix/share/psi4/basis/aug-cc-pvtz-jkfit.gbs 
    atoms 2, 6, 8, 10, 14, 18, 20, 22 entry H          line    70 file /Users/basirbinrafiq/miniforge3/envs/p4fix/share/psi4/basis/aug-cc-pvtz-jkfit.gbs 
    atoms 3, 5, 7, 11, 15, 17, 19, 23 entry C          line   162 file /Users/basirbinrafiq/miniforge3/envs/p4fix/share/psi4/basis/aug-cc-pvtz-jkfit.gbs 
    atoms 4, 12, 16, 24               entry O          line   286 file /Users/basirbinrafiq/miniforge3/envs/p4fix/share/psi4/basis/aug-cc-pvtz-jkfit.gbs 

  ==> Integral Setup <==

  ==> DiskDFJK: Density-Fitted J/K Matrices <==

    J tasked:                  Yes
    K tasked:                  Yes
    wK tasked:                  No
    OpenMP threads:              1
    Integrals threads:           1
    Memory [MiB]:             5722
    Algorithm:                Core
    Integral Cache:           LOAD
    Schwarz Cutoff:          1E-12
    Fitting Condition:       1E-10

   => Auxiliary Basis Set <=

  Basis Set: (AUG-CC-PVTZ AUX)
    Blend: AUG-CC-PVTZ-JKFIT
    Number of shells: 592
    Number of basis functions: 2032
    Number of Cartesian functions: 2536
    Spherical Harmonics?: true
    Max angular momentum: 4

  Minimum eigenvalue in the overlap matrix is 1.6742870490E-06.
  Reciprocal condition number of the overlap matrix is 9.5894979235E-08.
    Using symmetric orthogonalization.

  ==> Pre-Iterations <==

  SCF Guess: Superposition of Atomic Densities via on-the-fly atomic UHF (no occupation information).

   -------------------------
    Irrep   Nso     Nmo    
   -------------------------
     A        920     920 
   -------------------------
    Total     920     920
   -------------------------

  ==> Iterations <==

                           Total Energy        Delta E     RMS |[F,P]|

   @DF-RHF iter SAD:  -411.96790953388586   -4.11968e+02   0.00000e+00 
   @DF-RHF iter   1:  -412.37370961956981   -4.05800e-01   8.13727e-04 ADIIS/DIIS
   @DF-RHF iter   2:  -412.53698539879332   -1.63276e-01   5.42714e-04 ADIIS/DIIS
   @DF-RHF iter   3:  -412.61754503862085   -8.05596e-02   9.86402e-05 DIIS
   @DF-RHF iter   4:  -412.62188503484379   -4.34000e-03   4.00927e-05 DIIS
   @DF-RHF iter   5:  -412.62277966241595   -8.94628e-04   8.21307e-06 DIIS
   @DF-RHF iter   6:  -412.62288471310160   -1.05051e-04   4.15199e-06 DIIS
   @DF-RHF iter   7:  -412.62290382969786   -1.91166e-05   1.72646e-06 DIIS
   @DF-RHF iter   8:  -412.62290725288892   -3.42319e-06   5.89813e-07 DIIS
   @DF-RHF iter   9:  -412.62290752761493   -2.74726e-07   2.38873e-07 DIIS
   @DF-RHF iter  10:  -412.62290759426025   -6.66453e-08   7.86530e-08 DIIS
