
    -----------------------------------------------------------------------
          Psi4: An Open-Source Ab Initio Electronic Structure Package
                               Psi4 1.9.1 release

                         Git: Rev {} zzzzzzz 


    D. G. A. Smith, L. A. Burns, A. C. Simmonett, R. M. Parrish,
    M. C. Schieber, R. Galvelis, P. Kraus, H. Kruse, R. Di Remigio,
    A. Alenaizan, A. M. James, S. Lehtola, J. P. Misiewicz, M. Scheurer,
    R. A. Shaw, J. B. Schriber, Y. Xie, Z. L. Glick, D. A. Sirianni,
    J. S. O'Brien, J. M. Waldrop, A. Kumar, E. G. Hohenstein,
    B. P. Pritchard, B. R. Brooks, H. F. Schaefer III, A. Yu. Sokolov,
    K. Patkowski, A. E. DePrince III, U. Bozkaya, R. A. King,
    F. A. Evangelista, J. M. Turney, T. D. Crawford, C. D. Sherrill,
    J. Chem. Phys. 152(18) 184108 (2020). https://doi.org/10.1063/5.0006002

                            Additional Code Authors
    E. T. Seidl, C. L. Janssen, E. F. Valeev, M. L. Leininger,
    J. F. Gonthier, R. M. Richard, H. R. McAlexander, M. Saitow, X. Wang,
    P. Verma, M. H. Lechner, A. Jiang, S. Behnle, A. G. Heide,
    M. F. Herbst, and D. L. Poole

             Previous Authors, Complete List of Code Contributors,
                       and Citations for Specific Modules
    https://github.com/psi4/psi4/blob/master/codemeta.json
    https://github.com/psi4/psi4/graphs/contributors
    http://psicode.org/psi4manual/master/introduction.html#citing-psifour

    -----------------------------------------------------------------------


    Psi4 started on: Tuesday, 18 November 2025 11:17AM

    Process ID: 22955
    Host:       Mac-mini.local
    PSIDATADIR: /Users/basirbinrafiq/miniforge3/envs/p4fix/share/psi4
    Memory:     500.0 MiB
    Threads:    1
    
  ==> Input File <==

--------------------------------------------------------------------------
molecule argon {
     0 1
     Ar  0.000000   0.000000  -1.880079

     units angstrom
     symmetry c1
     no_reorient
}

set basis                  aug-cc-pVQZ

scf_e, scf_wfn = energy('pbe0', return_wfn=True)

HOMO = scf_wfn.epsilon_a_subset('AO', 'ALL').np[scf_wfn.nalpha()-1]
LUMO = scf_wfn.epsilon_a_subset('AO', 'ALL').np[scf_wfn.nalpha()]

print("\nThe HOMO energy is     %16.8f hartree" % HOMO)
--------------------------------------------------------------------------

Scratch directory: /tmp/
   => Libint2 <=

    Primary   basis highest AM E, G, H:  6, 6, 3
    Auxiliary basis highest AM E, G, H:  7, 7, 4
    Onebody   basis highest AM E, G, H:  -, -, -
    Solid Harmonics ordering:            Gaussian

*** tstart() called on Mac-mini.local
*** at Tue Nov 18 11:17:00 2025

   => Loading Basis Set <=

    Name: AUG-CC-PVQZ
    Role: ORBITAL
    Keyword: BASIS
    atoms 1 entry AR         line  1318 file /Users/basirbinrafiq/miniforge3/envs/p4fix/share/psi4/basis/aug-cc-pvqz.gbs 


         ---------------------------------------------------------
                                   SCF
               by Justin Turney, Rob Parrish, Andy Simmonett
                          and Daniel G. A. Smith
                              RKS Reference
                        1 Threads,    500 MiB Core
         ---------------------------------------------------------

  ==> Geometry <==

    Molecular point group: c1
    Geometry (in Angstrom), charge = 0, multiplicity = 1:

       Center              X                  Y                   Z               Mass       
    ------------   -----------------  -----------------  -----------------  -----------------
         AR           0.000000000000     0.000000000000     0.000000000000    39.962383123700

  Running in c1 symmetry.

  Rotational constants: A = ************  B = ************  C = ************ [cm^-1]
  Rotational constants: A = ************  B = ************  C = ************ [MHz]
  Nuclear repulsion =    0.000000000000000

  Charge       = 0
  Multiplicity = 1
  Electrons    = 18
  Nalpha       = 9
  Nbeta        = 9

  ==> Algorithm <==

  SCF Algorithm Type is DF.
  DIIS enabled.
  MOM disabled.
  Fractional occupation disabled.
  Guess Type is CORE.
  Energy threshold   = 1.00e-06
  Density threshold  = 1.00e-06
  Integral threshold = 1.00e-12

  ==> Primary Basis <==

  Basis Set: AUG-CC-PVQZ
    Blend: AUG-CC-PVQZ
    Number of shells: 22
    Number of basis functions: 84
    Number of Cartesian functions: 109
    Spherical Harmonics?: true
    Max angular momentum: 4

  ==> DFT Potential <==

   => LibXC <=

    Version 7.0.0
    S. Lehtola, C. Steigemann, M. J.T. Oliveira, and M. A.L. Marques.,  SoftwareX 7, 1–5 (2018) (10.1016/j.softx.2017.11.002)

   => Composite Functional: PBE0 <= 

    PBE0 Hyb-GGA Exchange-Correlation Functional

    C. Adamo and V. Barone.,  J. Chem. Phys. 110, 6158 (1999) (10.1063/1.478522)
    M. Ernzerhof and G. E. Scuseria.,  J. Chem. Phys. 110, 5029 (1999) (10.1063/1.478401)

    Deriv               =              1
    GGA                 =           TRUE
    Meta                =          FALSE

    Exchange Hybrid     =           TRUE
    MP2 Hybrid          =          FALSE

   => Exchange Functionals <=

    0.7500   Perdew, Burke & Ernzerhof

   => Exact (HF) Exchange <=

    0.2500               HF 

   => Correlation Functionals <=

    1.0000   Perdew, Burke & Ernzerhof

   => LibXC Density Thresholds  <==

    XC_HYB_GGA_XC_PBEH:  1.00E-15 

   => Molecular Quadrature <=

    Radial Scheme          =       TREUTLER
    Pruning Scheme         =           NONE
    Nuclear Scheme         =       TREUTLER

    Blocking Scheme        =         OCTREE
    BS radius alpha        =              1
    Pruning alpha          =              1
    Radial Points          =             75
    Spherical Points       =            302
    Total Points           =          21744
    Total Blocks           =            234
    Max Points             =            239
    Max Functions          =             84
    Weights Tolerance      =       1.00E-15

   => Loading Basis Set <=

    Name: (AUG-CC-PVQZ AUX)
    Role: JKFIT
    Keyword: DF_BASIS_SCF
    atoms 1 entry AR         line   998 file /Users/basirbinrafiq/miniforge3/envs/p4fix/share/psi4/basis/aug-cc-pvqz-jkfit.gbs 

  ==> Integral Setup <==

  DFHelper Memory: AOs need 0.012 GiB; user supplied 0.318 GiB. 
  Using in-core AOs.

  ==> MemDFJK: Density-Fitted J/K Matrices <==

    J tasked:                   Yes
    K tasked:                   Yes
    wK tasked:                   No
    OpenMP threads:               1
    Memory [MiB]:               325
    Algorithm:                 Core
    Schwarz Cutoff:           1E-12
    Mask sparsity (%):       0.0000
    Fitting Condition:        1E-10

   => Auxiliary Basis Set <=

  Basis Set: (AUG-CC-PVQZ AUX)
    Blend: AUG-CC-PVQZ-JKFIT
    Number of shells: 46
    Number of basis functions: 184
    Number of Cartesian functions: 247
    Spherical Harmonics?: true
    Max angular momentum: 5

  Cached 100.0% of DFT collocation blocks in 0.049 [GiB].

  Minimum eigenvalue in the overlap matrix is 5.7671347618E-04.
  Reciprocal condition number of the overlap matrix is 1.5122361701E-04.
    Using symmetric orthogonalization.

  ==> Pre-Iterations <==

  SCF Guess: Core (One-Electron) Hamiltonian.

   -------------------------------------------------------
    Irrep   Nso     Nmo     Nalpha   Nbeta   Ndocc  Nsocc
   -------------------------------------------------------
     A         84      84       9       9       9       0
   -------------------------------------------------------
    Total      84      84       9       9       9       0
   -------------------------------------------------------

  ==> Iterations <==

                           Total Energy        Delta E     RMS |[F,P]|

   @DF-RKS iter   1:  -501.83359081644124   -5.01834e+02   1.47298e-01 ADIIS
   @DF-RKS iter   2:  -513.59212185933109   -1.17585e+01   7.25812e-02 DIIS/ADIIS
   @DF-RKS iter   3:  -526.19054520246789   -1.25984e+01   2.34088e-02 DIIS/ADIIS
   @DF-RKS iter   4:  -527.31434534343305   -1.12380e+00   5.82449e-03 DIIS/ADIIS
   @DF-RKS iter   5:  -527.38518389351509   -7.08386e-02   6.28630e-05 DIIS
   @DF-RKS iter   6:  -527.38519968755156   -1.57940e-05   2.63217e-05 DIIS
   @DF-RKS iter   7:  -527.38520160081418   -1.91326e-06   1.67697e-06 DIIS
   @DF-RKS iter   8:  -527.38520160856899   -7.75481e-09   7.48647e-09 DIIS
  Energy and wave function converged.


  ==> Post-Iterations <==

   Electrons on quadrature grid:
      Ntotal   =   18.0000000055 ; deviation = 5.481e-09 

    Orbital Energies [Eh]
    ---------------------

    Doubly Occupied:                                                      

       1A   -115.305627     2A    -11.218809     3A     -8.741971  
       4A     -8.741971     5A     -8.741971     6A     -0.992435  
       7A     -0.440371     8A     -0.440371     9A     -0.440371  

    Virtual:                                                              

      10A      0.048286    11A      0.071958    12A      0.071958  
      13A      0.071958    14A      0.215052    15A      0.215052  
      16A      0.215052    17A      0.215052    18A      0.215052  
      19A      0.421835    20A      0.421835    21A      0.421835  
      22A      0.593879    23A      0.593879    24A      0.593879  
      25A      0.593879    26A      0.593879    27A      0.605702  
      28A      0.907068    29A      0.907068    30A      0.907068  
      31A      0.907068    32A      0.907068    33A      0.907068  
      34A      0.907068    35A      1.707506    36A      1.707506  
      37A      1.707506    38A      1.753930    39A      1.753930  
      40A      1.753930    41A      1.753930    42A      1.753930  
      43A      2.016725    44A      2.016725    45A      2.016725  
      46A      2.016725    47A      2.016725    48A      2.016725  
      49A      2.016725    50A      2.016725    51A      2.016725  
      52A      2.325945    53A      2.325945    54A      2.325945  
      55A      2.325945    56A      2.325945    57A      2.325945  
      58A      2.325945    59A      2.824862    60A      4.656145  
      61A      4.656145    62A      4.656145    63A      4.656145  
      64A      4.656145    65A      5.257290    66A      5.257290  
      67A      5.257290    68A      5.257290    69A      5.257290  
      70A      5.257290    71A      5.257290    72A      5.257290  
      73A      5.257290    74A      5.364613    75A      5.364613  
      76A      5.364613    77A      5.364613    78A      5.364613  
      79A      5.364613    80A      5.364613    81A      6.198027  
      82A      6.198027    83A      6.198027    84A     28.330597  

    Final Occupation by Irrep:
              A 
    DOCC [     9 ]
    NA   [     9 ]
    NB   [     9 ]

  @DF-RKS Final Energy:  -527.38520160856899

   => Energetics <=

    Nuclear Repulsion Energy =              0.0000000000000000
    One-Electron Energy =                -728.2660692813694823
    Two-Electron Energy =                 224.0690626862204340
    DFT Exchange-Correlation Energy =     -23.1881950134199037
    Empirical Dispersion Energy =           0.0000000000000000
    VV10 Nonlocal Energy =                  0.0000000000000000
    Total Energy =                       -527.3852016085689911

Computation Completed


Properties will be evaluated at   0.000000,   0.000000,   0.000000 [a0]

Properties computed using the SCF density matrix


 Multipole Moments:

 ------------------------------------------------------------------------------------
     Multipole            Electronic (a.u.)      Nuclear  (a.u.)        Total (a.u.)
 ------------------------------------------------------------------------------------

 L = 1.  Multiply by 2.5417464519 to convert [e a0] to [Debye]
 Dipole X            :         -0.0000000            0.0000000           -0.0000000
 Dipole Y            :         -0.0000000            0.0000000           -0.0000000
 Dipole Z            :          0.0000000            0.0000000            0.0000000
 Magnitude           :                                                    0.0000000

 ------------------------------------------------------------------------------------

*** tstop() called on Mac-mini.local at Tue Nov 18 11:17:01 2025
Module time:
	user time   =       0.39 seconds =       0.01 minutes
	system time =       0.08 seconds =       0.00 minutes
	total time  =          1 seconds =       0.02 minutes
Total time:
	user time   =       0.39 seconds =       0.01 minutes
	system time =       0.08 seconds =       0.00 minutes
	total time  =          1 seconds =       0.02 minutes

    Psi4 stopped on: Tuesday, 18 November 2025 11:17AM
    Psi4 wall time for execution: 0:00:00.64

*** Psi4 exiting successfully. Buy a developer a beer!
